 Entering Gaussian System, Link 0=g09
 Input=ATZ+1.gjf
 Output=ATZ+1.log
 Initial command:
 /home/pvbharatam/guass/g09/l1.exe /home/pvbharatam/GAUSS_SCRDIR/Gau-25999.inp -scrdir=/home/pvbharatam/GAUSS_SCRDIR/
 Entering Link 1 = /home/pvbharatam/guass/g09/l1.exe PID=     26000.
  
 Copyright (c) 1988,1990,1992,1993,1995,1998,2003,2009,2010,
            Gaussian, Inc.  All Rights Reserved.
  
 This is part of the Gaussian(R) 09 program.  It is based on
 the Gaussian(R) 03 system (copyright 2003, Gaussian, Inc.),
 the Gaussian(R) 98 system (copyright 1998, Gaussian, Inc.),
 the Gaussian(R) 94 system (copyright 1995, Gaussian, Inc.),
 the Gaussian 92(TM) system (copyright 1992, Gaussian, Inc.),
 the Gaussian 90(TM) system (copyright 1990, Gaussian, Inc.),
 the Gaussian 88(TM) system (copyright 1988, Gaussian, Inc.),
 the Gaussian 86(TM) system (copyright 1986, Carnegie Mellon
 University), and the Gaussian 82(TM) system (copyright 1983,
 Carnegie Mellon University). Gaussian is a federally registered
 trademark of Gaussian, Inc.
  
 This software contains proprietary and confidential information,
 including trade secrets, belonging to Gaussian, Inc.
  
 This software is provided under written license and may be
 used, copied, transmitted, or stored only in accord with that
 written license.
  
 The following legend is applicable only to US Government
 contracts under FAR:
  
                    RESTRICTED RIGHTS LEGEND
  
 Use, reproduction and disclosure by the US Government is
 subject to restrictions as set forth in subparagraphs (a)
 and (c) of the Commercial Computer Software - Restricted
 Rights clause in FAR 52.227-19.
  
 Gaussian, Inc.
 340 Quinnipiac St., Bldg. 40, Wallingford CT 06492
  
  
 ---------------------------------------------------------------
 Warning -- This program may not be used in any manner that
 competes with the business of Gaussian, Inc. or will provide
 assistance to any competitor of Gaussian, Inc.  The licensee
 of this program is prohibited from giving any competitor of
 Gaussian, Inc. access to this program.  By using this program,
 the user acknowledges that Gaussian, Inc. is engaged in the
 business of creating and licensing software in the field of
 computational chemistry and represents and warrants to the
 licensee that it is not a competitor of Gaussian, Inc. and that
 it will not use this program in any manner prohibited above.
 ---------------------------------------------------------------
  

 Cite this work as:
 Gaussian 09, Revision B.01,
 M. J. Frisch, G. W. Trucks, H. B. Schlegel, G. E. Scuseria, 
 M. A. Robb, J. R. Cheeseman, G. Scalmani, V. Barone, B. Mennucci, 
 G. A. Petersson, H. Nakatsuji, M. Caricato, X. Li, H. P. Hratchian, 
 A. F. Izmaylov, J. Bloino, G. Zheng, J. L. Sonnenberg, M. Hada, 
 M. Ehara, K. Toyota, R. Fukuda, J. Hasegawa, M. Ishida, T. Nakajima, 
 Y. Honda, O. Kitao, H. Nakai, T. Vreven, J. A. Montgomery, Jr., 
 J. E. Peralta, F. Ogliaro, M. Bearpark, J. J. Heyd, E. Brothers, 
 K. N. Kudin, V. N. Staroverov, T. Keith, R. Kobayashi, J. Normand, 
 K. Raghavachari, A. Rendell, J. C. Burant, S. S. Iyengar, J. Tomasi, 
 M. Cossi, N. Rega, J. M. Millam, M. Klene, J. E. Knox, J. B. Cross, 
 V. Bakken, C. Adamo, J. Jaramillo, R. Gomperts, R. E. Stratmann, 
 O. Yazyev, A. J. Austin, R. Cammi, C. Pomelli, J. W. Ochterski, 
 R. L. Martin, K. Morokuma, V. G. Zakrzewski, G. A. Voth, 
 P. Salvador, J. J. Dannenberg, S. Dapprich, A. D. Daniels, 
 O. Farkas, J. B. Foresman, J. V. Ortiz, J. Cioslowski, 
 and D. J. Fox, Gaussian, Inc., Wallingford CT, 2010.
 
 ******************************************
 Gaussian 09:  EM64L-G09RevB.01 12-Aug-2010
                12-Jul-2020 
 ******************************************
 %nprocshared=4
 Will use up to    4 processors via shared memory.
 %mem=4GB
 %chk=ATZ+1.chk
 -----------------
 # b3lyp/6-31+g(d)
 -----------------
 1/38=1/1;
 2/12=2,17=6,18=5,40=1/2;
 3/5=1,6=6,7=11,11=2,16=1,25=1,30=1,74=-5/1,2,3;
 4//1;
 5/5=2,38=5/2;
 6/7=2,8=2,9=2,10=2,28=1/1;
 99/5=1,9=1/99;
 -----
 ATZ+1
 -----
 Symbolic Z-matrix:
 Charge =  1 Multiplicity = 2
 C                     0.77936   0.19818  -0.00006 
 C                    -1.20517   1.17368   0.00023 
 C                    -1.64635  -0.12138   0.00014 
 S                    -0.28916  -1.1976   -0.00032 
 H                    -1.84527   2.04874   0.00046 
 H                    -2.66624  -0.48288   0.00047 
 N                     0.16084   1.34649   0.00023 
 N                     2.17627  -0.01941  -0.00089 
 H                     2.60606   0.40969  -0.81865 
 H                     2.60518   0.39361   0.82557 
 
                          Input orientation:                          
 ---------------------------------------------------------------------
 Center     Atomic      Atomic             Coordinates (Angstroms)
 Number     Number       Type             X           Y           Z
 ---------------------------------------------------------------------
      1          6           0        0.779364    0.198182   -0.000062
      2          6           0       -1.205174    1.173681    0.000230
      3          6           0       -1.646351   -0.121379    0.000139
      4         16           0       -0.289161   -1.197602   -0.000315
      5          1           0       -1.845270    2.048740    0.000460
      6          1           0       -2.666237   -0.482881    0.000470
      7          7           0        0.160840    1.346491    0.000226
      8          7           0        2.176275   -0.019408   -0.000893
      9          1           0        2.606059    0.409693   -0.818647
     10          1           0        2.605180    0.393607    0.825573
 ---------------------------------------------------------------------
                    Distance matrix (angstroms):
                    1          2          3          4          5
     1  C    0.000000
     2  C    2.211332   0.000000
     3  C    2.446674   1.368144   0.000000
     4  S    1.757828   2.542059   1.732115   0.000000
     5  H    3.211428   1.084182   2.179217   3.600029   0.000000
     6  H    3.512266   2.208824   1.082059   2.482200   2.661408
     7  N    1.304295   1.376901   2.328214   2.583585   2.125472
     8  N    1.413756   3.585758   3.823986   2.732493   4.522174
     9  H    2.012867   3.972371   4.362962   3.411065   4.813703
    10  H    2.013323   3.975991   4.361430   3.404592   4.819417
                    6          7          8          9         10
     6  H    0.000000
     7  N    3.367338   0.000000
     8  N    4.864641   2.434679   0.000000
     9  H    5.409690   2.743581   1.018609   0.000000
    10  H    5.407112   2.750270   1.018620   1.644299   0.000000
 Stoichiometry    C3H4N2S(1+,2)
 Framework group  C1[X(C3H4N2S)]
 Deg. of freedom    24
 Full point group                 C1      NOp   1
 Largest Abelian subgroup         C1      NOp   1
 Largest concise Abelian subgroup C1      NOp   1
                         Standard orientation:                         
 ---------------------------------------------------------------------
 Center     Atomic      Atomic             Coordinates (Angstroms)
 Number     Number       Type             X           Y           Z
 ---------------------------------------------------------------------
      1          6           0        0.779364    0.198182   -0.000062
      2          6           0       -1.205174    1.173681    0.000230
      3          6           0       -1.646351   -0.121379    0.000139
      4         16           0       -0.289161   -1.197602   -0.000315
      5          1           0       -1.845269    2.048740    0.000460
      6          1           0       -2.666237   -0.482880    0.000470
      7          7           0        0.160841    1.346491    0.000226
      8          7           0        2.176275   -0.019409   -0.000893
      9          1           0        2.606059    0.409692   -0.818647
     10          1           0        2.605180    0.393606    0.825573
 ---------------------------------------------------------------------
 Rotational constants (GHZ):      5.3465283      3.3195889      2.0708736
 Standard basis: 6-31+G(d) (6D, 7F)
 There are   126 symmetry adapted basis functions of A   symmetry.
 Integral buffers will be    131072 words long.
 Raffenetti 2 integral format.
 Two-electron integral symmetry is turned on.
   126 basis functions,   232 primitive gaussians,   126 cartesian basis functions
    26 alpha electrons       25 beta electrons
       nuclear repulsion energy       277.1973135826 Hartrees.
 NAtoms=   10 NActive=   10 NUniq=   10 SFac= 1.00D+00 NAtFMM=   50 NAOKFM=F Big=F
 One-electron integrals computed using PRISM.
 NBasis=   126 RedAO= T  NBF=   126
 NBsUse=   126 1.00D-06 NBFU=   126
 Harris functional with IExCor=  402 diagonalized for initial guess.
 ExpMin= 4.05D-02 ExpMax= 2.19D+04 ExpMxC= 3.30D+03 IAcc=2 IRadAn=         0 AccDes= 0.00D+00
 HarFok:  IExCor=  402 AccDes= 0.00D+00 IRadAn=         0 IDoV= 1
 ScaDFX=  1.000000  1.000000  1.000000  1.000000
 FoFCou: FMM=F IPFlag=           0 FMFlag=      100000 FMFlg1=           0
         NFxFlg=           0 DoJE=T BraDBF=F KetDBF=T FulRan=T
         Omega=  0.000000  0.000000  1.000000  0.000000  0.000000 ICntrl=     500 IOpCl=  0
         NMat0=    1 NMatS0=    1 NMatT0=    0 NMatD0=    1 NMtDS0=    0 NMtDT0=    0
         I1Cent=           4 NGrid=           0.
 Petite list used in FoFCou.
 Initial guess orbital symmetries:
 Alpha Orbitals:
       Occupied  (A) (A) (A) (A) (A) (A) (A) (A) (A) (A) (A) (A)
                 (A) (A) (A) (A) (A) (A) (A) (A) (A) (A) (A) (A)
                 (A) (A)
       Virtual   (A) (A) (A) (A) (A) (A) (A) (A) (A) (A) (A) (A)
                 (A) (A) (A) (A) (A) (A) (A) (A) (A) (A) (A) (A)
                 (A) (A) (A) (A) (A) (A) (A) (A) (A) (A) (A) (A)
                 (A) (A) (A) (A) (A) (A) (A) (A) (A) (A) (A) (A)
                 (A) (A) (A) (A) (A) (A) (A) (A) (A) (A) (A) (A)
                 (A) (A) (A) (A) (A) (A) (A) (A) (A) (A) (A) (A)
                 (A) (A) (A) (A) (A) (A) (A) (A) (A) (A) (A) (A)
                 (A) (A) (A) (A) (A) (A) (A) (A) (A) (A) (A) (A)
                 (A) (A) (A) (A)
 Beta  Orbitals:
       Occupied  (A) (A) (A) (A) (A) (A) (A) (A) (A) (A) (A) (A)
                 (A) (A) (A) (A) (A) (A) (A) (A) (A) (A) (A) (A)
                 (A)
       Virtual   (A) (A) (A) (A) (A) (A) (A) (A) (A) (A) (A) (A)
                 (A) (A) (A) (A) (A) (A) (A) (A) (A) (A) (A) (A)
                 (A) (A) (A) (A) (A) (A) (A) (A) (A) (A) (A) (A)
                 (A) (A) (A) (A) (A) (A) (A) (A) (A) (A) (A) (A)
                 (A) (A) (A) (A) (A) (A) (A) (A) (A) (A) (A) (A)
                 (A) (A) (A) (A) (A) (A) (A) (A) (A) (A) (A) (A)
                 (A) (A) (A) (A) (A) (A) (A) (A) (A) (A) (A) (A)
                 (A) (A) (A) (A) (A) (A) (A) (A) (A) (A) (A) (A)
                 (A) (A) (A) (A) (A)
 The electronic state of the initial guess is 2-A.
 Initial guess <Sx>= 0.0000 <Sy>= 0.0000 <Sz>= 0.5000 <S**2>= 0.7500 S= 0.5000
 Requested convergence on RMS density matrix=1.00D-08 within 128 cycles.
 Requested convergence on MAX density matrix=1.00D-06.
 Requested convergence on             energy=1.00D-06.
 No special actions if energy rises.
 Keep R1 and R2 ints in memory in canonical form, NReq=65201138.
 EnCoef did     1 forward-backward iterations
 EnCoef did     6 forward-backward iterations
 SCF Done:  E(UB3LYP) =  -624.074863792     A.U. after   23 cycles
             Convg  =    0.3934D-08             -V/T =  2.0054
 <Sx>= 0.0000 <Sy>= 0.0000 <Sz>= 0.5000 <S**2>= 0.7591 S= 0.5045
 <L.S>= 0.000000000000E+00
 Annihilation of the first spin contaminant:
 S**2 before annihilation     0.7591,   after     0.7500

 **********************************************************************

            Population analysis using the SCF density.

 **********************************************************************

 Orbital symmetries:
 Alpha Orbitals:
       Occupied  (A) (A) (A) (A) (A) (A) (A) (A) (A) (A) (A) (A)
                 (A) (A) (A) (A) (A) (A) (A) (A) (A) (A) (A) (A)
                 (A) (A)
       Virtual   (A) (A) (A) (A) (A) (A) (A) (A) (A) (A) (A) (A)
                 (A) (A) (A) (A) (A) (A) (A) (A) (A) (A) (A) (A)
                 (A) (A) (A) (A) (A) (A) (A) (A) (A) (A) (A) (A)
                 (A) (A) (A) (A) (A) (A) (A) (A) (A) (A) (A) (A)
                 (A) (A) (A) (A) (A) (A) (A) (A) (A) (A) (A) (A)
                 (A) (A) (A) (A) (A) (A) (A) (A) (A) (A) (A) (A)
                 (A) (A) (A) (A) (A) (A) (A) (A) (A) (A) (A) (A)
                 (A) (A) (A) (A) (A) (A) (A) (A) (A) (A) (A) (A)
                 (A) (A) (A) (A)
 Beta  Orbitals:
       Occupied  (A) (A) (A) (A) (A) (A) (A) (A) (A) (A) (A) (A)
                 (A) (A) (A) (A) (A) (A) (A) (A) (A) (A) (A) (A)
                 (A)
       Virtual   (A) (A) (A) (A) (A) (A) (A) (A) (A) (A) (A) (A)
                 (A) (A) (A) (A) (A) (A) (A) (A) (A) (A) (A) (A)
                 (A) (A) (A) (A) (A) (A) (A) (A) (A) (A) (A) (A)
                 (A) (A) (A) (A) (A) (A) (A) (A) (A) (A) (A) (A)
                 (A) (A) (A) (A) (A) (A) (A) (A) (A) (A) (A) (A)
                 (A) (A) (A) (A) (A) (A) (A) (A) (A) (A) (A) (A)
                 (A) (A) (A) (A) (A) (A) (A) (A) (A) (A) (A) (A)
                 (A) (A) (A) (A) (A) (A) (A) (A) (A) (A) (A) (A)
                 (A) (A) (A) (A) (A)
 The electronic state is 2-A.
 Alpha  occ. eigenvalues --  -89.16411 -14.57472 -14.54621 -10.54160 -10.49743
 Alpha  occ. eigenvalues --  -10.49672  -8.22325  -6.18664  -6.18282  -6.18196
 Alpha  occ. eigenvalues --   -1.22653  -1.11375  -1.04991  -0.98193  -0.83769
 Alpha  occ. eigenvalues --   -0.80433  -0.75014  -0.71924  -0.68861  -0.66039
 Alpha  occ. eigenvalues --   -0.64841  -0.60576  -0.52562  -0.51036  -0.50745
 Alpha  occ. eigenvalues --   -0.47672
 Alpha virt. eigenvalues --   -0.27986  -0.20746  -0.20695  -0.15948  -0.14420
 Alpha virt. eigenvalues --   -0.12073  -0.10691  -0.10009  -0.10001  -0.07011
 Alpha virt. eigenvalues --   -0.06959  -0.05878  -0.05307  -0.03538  -0.02803
 Alpha virt. eigenvalues --   -0.02644  -0.01289  -0.00254   0.00926   0.01762
 Alpha virt. eigenvalues --    0.01921   0.02624   0.04495   0.05433   0.06217
 Alpha virt. eigenvalues --    0.07278   0.07926   0.08811   0.10055   0.10555
 Alpha virt. eigenvalues --    0.11846   0.14458   0.15531   0.17305   0.20130
 Alpha virt. eigenvalues --    0.25091   0.28368   0.30407   0.32122   0.35444
 Alpha virt. eigenvalues --    0.36834   0.40825   0.41218   0.45663   0.47781
 Alpha virt. eigenvalues --    0.57793   0.59428   0.59840   0.62408   0.68823
 Alpha virt. eigenvalues --    0.70496   0.72547   0.72600   0.75364   0.75836
 Alpha virt. eigenvalues --    0.78681   0.80041   0.82342   0.83986   0.84715
 Alpha virt. eigenvalues --    0.87643   0.88184   0.91357   0.95810   0.98060
 Alpha virt. eigenvalues --    0.99282   1.10722   1.14225   1.17492   1.22976
 Alpha virt. eigenvalues --    1.29600   1.35367   1.36853   1.50807   1.52802
 Alpha virt. eigenvalues --    1.64646   1.68820   1.75274   1.79854   1.88309
 Alpha virt. eigenvalues --    1.90211   1.97295   2.00607   2.04879   2.11887
 Alpha virt. eigenvalues --    2.16636   2.21001   2.22808   2.39112   2.40009
 Alpha virt. eigenvalues --    2.45495   2.61095   2.74051   2.83062   3.70044
 Alpha virt. eigenvalues --    3.79780   3.93531   3.97562   4.12883   4.17643
  Beta  occ. eigenvalues --  -89.16371 -14.57622 -14.54618 -10.53637 -10.49230
  Beta  occ. eigenvalues --  -10.49163  -8.22285  -6.18660  -6.18279  -6.18025
  Beta  occ. eigenvalues --   -1.21944  -1.10887  -1.04382  -0.96583  -0.82969
  Beta  occ. eigenvalues --   -0.79679  -0.74602  -0.70745  -0.68514  -0.65656
  Beta  occ. eigenvalues --   -0.62149  -0.60158  -0.51543  -0.50789  -0.47627
  Beta virt. eigenvalues --   -0.41964  -0.24495  -0.20272  -0.18046  -0.15713
  Beta virt. eigenvalues --   -0.14172  -0.11819  -0.10590  -0.09812  -0.09797
  Beta virt. eigenvalues --   -0.06921  -0.06764  -0.05631  -0.05084  -0.03456
  Beta virt. eigenvalues --   -0.02574  -0.02409  -0.00894  -0.00185   0.01157
  Beta virt. eigenvalues --    0.01914   0.02101   0.02979   0.04636   0.05581
  Beta virt. eigenvalues --    0.06272   0.07573   0.08091   0.09260   0.10184
  Beta virt. eigenvalues --    0.10776   0.12114   0.14565   0.15676   0.17685
  Beta virt. eigenvalues --    0.20264   0.25689   0.28653   0.30703   0.32518
  Beta virt. eigenvalues --    0.35593   0.38619   0.41546   0.42802   0.46043
  Beta virt. eigenvalues --    0.49888   0.58978   0.60361   0.60475   0.62799
  Beta virt. eigenvalues --    0.69342   0.70939   0.72785   0.72834   0.75662
  Beta virt. eigenvalues --    0.75895   0.78996   0.80305   0.82774   0.84407
  Beta virt. eigenvalues --    0.84987   0.87812   0.88400   0.91864   0.96507
  Beta virt. eigenvalues --    0.98487   0.99857   1.12695   1.14444   1.18840
  Beta virt. eigenvalues --    1.24560   1.29926   1.35518   1.38521   1.51080
  Beta virt. eigenvalues --    1.54789   1.65084   1.70647   1.75700   1.80371
  Beta virt. eigenvalues --    1.89581   1.91358   1.99365   2.02432   2.07063
  Beta virt. eigenvalues --    2.12810   2.16993   2.22504   2.23243   2.39967
  Beta virt. eigenvalues --    2.40434   2.46416   2.61586   2.74268   2.83342
  Beta virt. eigenvalues --    3.70319   3.79860   3.93970   3.98383   4.14140
  Beta virt. eigenvalues --    4.18866
          Condensed to atoms (all electrons):
              1          2          3          4          5          6
     1  C    6.221690   0.073354   0.073112  -0.700663   0.033431  -0.003366
     2  C    0.073354   5.397768   0.028867   0.088206   0.369412   0.018968
     3  C    0.073112   0.028867   5.689194  -0.008805  -0.039951   0.294325
     4  S   -0.700663   0.088206  -0.008805  16.123492  -0.013529   0.003779
     5  H    0.033431   0.369412  -0.039951  -0.013529   0.420816  -0.000779
     6  H   -0.003366   0.018968   0.294325   0.003779  -0.000779   0.369475
     7  N    0.073683   0.063653   0.101990  -0.029605  -0.057947   0.001756
     8  N    0.459540   0.064390  -0.037301  -0.100047  -0.000991   0.000523
     9  H   -0.033156   0.002454  -0.000988   0.003477   0.000003   0.000001
    10  H   -0.030672   0.001948  -0.000585   0.001981   0.000003   0.000001
              7          8          9         10
     1  C    0.073683   0.459540  -0.033156  -0.030672
     2  C    0.063653   0.064390   0.002454   0.001948
     3  C    0.101990  -0.037301  -0.000988  -0.000585
     4  S   -0.029605  -0.100047   0.003477   0.001981
     5  H   -0.057947  -0.000991   0.000003   0.000003
     6  H    0.001756   0.000523   0.000001   0.000001
     7  N    7.130955  -0.266167  -0.000312  -0.000148
     8  N   -0.266167   7.007588   0.307376   0.306183
     9  H   -0.000312   0.307376   0.298245  -0.025623
    10  H   -0.000148   0.306183  -0.025623   0.297216
 Mulliken atomic charges:
              1
     1  C   -0.166953
     2  C   -0.109020
     3  C   -0.099857
     4  S    0.631714
     5  H    0.289532
     6  H    0.315318
     7  N   -0.017857
     8  N   -0.741095
     9  H    0.448523
    10  H    0.449695
 Sum of Mulliken atomic charges =   1.00000
 Mulliken charges with hydrogens summed into heavy atoms:
              1
     1  C   -0.166953
     2  C    0.180512
     3  C    0.215461
     4  S    0.631714
     7  N   -0.017857
     8  N    0.157123
 Sum of Mulliken charges with hydrogens summed into heavy atoms =   1.00000
          Atomic-Atomic Spin Densities.
              1          2          3          4          5          6
     1  C    0.363713  -0.023624  -0.019325   0.044736  -0.001195   0.000952
     2  C   -0.023624   0.335839   0.060597  -0.008953  -0.002006  -0.003909
     3  C   -0.019325   0.060597   0.383175  -0.066233  -0.000590   0.001988
     4  S    0.044736  -0.008953  -0.066233   0.096454   0.000707  -0.002365
     5  H   -0.001195  -0.002006  -0.000590   0.000707  -0.016260   0.000069
     6  H    0.000952  -0.003909   0.001988  -0.002365   0.000069  -0.014215
     7  N    0.019080  -0.021498  -0.001277  -0.003228   0.001753  -0.000182
     8  N   -0.021153   0.000892   0.000374  -0.001791   0.000041  -0.000004
     9  H   -0.006669   0.000141   0.000142  -0.000668   0.000000   0.000000
    10  H   -0.008311   0.000385  -0.000058  -0.000010   0.000000   0.000000
              7          8          9         10
     1  C    0.019080  -0.021153  -0.006669  -0.008311
     2  C   -0.021498   0.000892   0.000141   0.000385
     3  C   -0.001277   0.000374   0.000142  -0.000058
     4  S   -0.003228  -0.001791  -0.000668  -0.000010
     5  H    0.001753   0.000041   0.000000   0.000000
     6  H   -0.000182  -0.000004   0.000000   0.000000
     7  N   -0.082821   0.000908  -0.000283  -0.000586
     8  N    0.000908  -0.010039   0.008635   0.010238
     9  H   -0.000283   0.008635   0.017516  -0.003940
    10  H   -0.000586   0.010238  -0.003940   0.019083
 Mulliken atomic spin densities:
              1
     1  C    0.348202
     2  C    0.337863
     3  C    0.358792
     4  S    0.058649
     5  H   -0.017481
     6  H   -0.017666
     7  N   -0.088134
     8  N   -0.011898
     9  H    0.014873
    10  H    0.016800
 Sum of Mulliken atomic spin densities =   1.00000
 Electronic spatial extent (au):  <R**2>=            561.2143
 Charge=              1.0000 electrons
 Dipole moment (field-independent basis, Debye):
    X=             -2.1506    Y=              0.6577    Z=              0.0146  Tot=              2.2489
 Quadrupole moment (field-independent basis, Debye-Ang):
   XX=            -19.0046   YY=            -36.8554   ZZ=            -37.4826
   XY=              1.0579   XZ=              0.0416   YZ=             -0.0230
 Traceless Quadrupole moment (field-independent basis, Debye-Ang):
   XX=             12.1096   YY=             -5.7412   ZZ=             -6.3684
   XY=              1.0579   XZ=              0.0416   YZ=             -0.0230
 Octapole moment (field-independent basis, Debye-Ang**2):
  XXX=              2.1005  YYY=             -2.8166  ZZZ=              0.0391  XYY=            -12.1428
  XXY=             14.0172  XXZ=              0.1288  XZZ=              7.3548  YZZ=              0.7094
  YYZ=             -0.0091  XYZ=             -0.0579
 Hexadecapole moment (field-independent basis, Debye-Ang**3):
 XXXX=           -281.3829 YYYY=           -251.7055 ZZZZ=            -42.4819 XXXY=             32.6536
 XXXZ=              0.3066 YYYX=            -16.9699 YYYZ=             -0.0347 ZZZX=              0.1088
 ZZZY=             -0.0289 XXYY=            -98.9821 XXZZ=            -63.0079 YYZZ=            -51.9904
 XXYZ=             -0.1632 YYXZ=             -0.0288 ZZXY=              3.2418
 N-N= 2.771973135826D+02 E-N=-3.012028528487D+03  KE= 9.303845593370D+02
                          Isotropic Fermi Contact Couplings
        Atom                 a.u.       MegaHertz       Gauss      10(-4) cm-1
     1  C(13)              0.04118      46.29485      16.51915      15.44230
     2  C(13)              0.03072      34.53618      12.32337      11.52003
     3  C(13)              0.02915      32.77251      11.69405      10.93173
     4  S(33)              0.00955       3.28003       1.17040       1.09410
     5  H(1)              -0.00626     -28.00301      -9.99217      -9.34080
     6  H(1)              -0.00599     -26.78281      -9.55677      -8.93378
     7  N(14)             -0.01068      -3.44954      -1.23088      -1.15064
     8  N(14)             -0.00735      -2.37417      -0.84716      -0.79194
     9  H(1)               0.01002      44.77753      15.97773      14.93618
    10  H(1)               0.01146      51.23192      18.28082      17.08913
 --------------------------------------------------------
       Center         ----  Spin Dipole Couplings  ----
                      3XX-RR        3YY-RR        3ZZ-RR
 --------------------------------------------------------
     1   Atom       -0.190846     -0.202450      0.393296
     2   Atom       -0.212422     -0.192536      0.404959
     3   Atom       -0.210818     -0.199553      0.410371
     4   Atom       -0.231639     -0.231376      0.463015
     5   Atom       -0.014137      0.022040     -0.007903
     6   Atom        0.023141     -0.014958     -0.008184
     7   Atom        0.059296      0.054679     -0.113974
     8   Atom       -0.023164     -0.025141      0.048305
     9   Atom        0.006340     -0.003634     -0.002706
    10   Atom        0.006877     -0.005564     -0.001313
 --------------------------------------------------------
                        XY            XZ            YZ
 --------------------------------------------------------
     1   Atom        0.004242     -0.003838      0.001899
     2   Atom        0.001769      0.004910      0.000201
     3   Atom        0.005163     -0.003118      0.001262
     4   Atom       -0.012778     -0.014702     -0.007651
     5   Atom       -0.025785     -0.000004      0.000233
     6   Atom        0.025251      0.000181      0.000161
     7   Atom       -0.003296      0.003843     -0.001767
     8   Atom        0.002442     -0.003354      0.014716
     9   Atom        0.004378     -0.006549     -0.004954
    10   Atom        0.003829      0.007497      0.003843
 --------------------------------------------------------


 ---------------------------------------------------------------------------------
              Anisotropic Spin Dipole Couplings in Principal Axis System
 ---------------------------------------------------------------------------------

       Atom             a.u.   MegaHertz   Gauss  10(-4) cm-1        Axes

              Baa    -0.2039   -27.355    -9.761    -9.125 -0.3115  0.9502 -0.0050
     1 C(13)  Bbb    -0.1895   -25.426    -9.073    -8.481  0.9502  0.3115  0.0052
              Bcc     0.3933    52.781    18.833    17.606 -0.0065  0.0031  1.0000
 
              Baa    -0.2126   -28.531   -10.181    -9.517  0.9961 -0.0877 -0.0079
     2 C(13)  Bbb    -0.1924   -25.816    -9.212    -8.611  0.0877  0.9961 -0.0011
              Bcc     0.4050    54.347    19.392    18.128  0.0080  0.0004  1.0000
 
              Baa    -0.2128   -28.562   -10.192    -9.527  0.9319 -0.3625  0.0054
     3 C(13)  Bbb    -0.1975   -26.509    -9.459    -8.842  0.3626  0.9320 -0.0001
              Bcc     0.4104    55.070    19.650    18.369 -0.0050  0.0020  1.0000
 
              Baa    -0.2446   -10.030    -3.579    -3.346  0.7135  0.7003  0.0224
     4 S(33)  Bbb    -0.2188    -8.969    -3.200    -2.992 -0.7003  0.7138 -0.0071
              Bcc     0.4634    18.999     6.779     6.337 -0.0210 -0.0106  0.9997
 
              Baa    -0.0275   -14.697    -5.244    -4.902  0.8872  0.4614 -0.0053
     5 H(1)   Bbb    -0.0079    -4.217    -1.505    -1.407  0.0069 -0.0018  1.0000
              Bcc     0.0354    18.914     6.749     6.309 -0.4613  0.8872  0.0048
 
              Baa    -0.0275   -14.694    -5.243    -4.901 -0.4459  0.8951 -0.0033
     6 H(1)   Bbb    -0.0082    -4.367    -1.558    -1.457 -0.0062  0.0006  1.0000
              Bcc     0.0357    19.061     6.801     6.358  0.8950  0.4460  0.0053
 
              Baa    -0.1141    -4.400    -1.570    -1.468 -0.0220  0.0100  0.9997
     7 N(14)  Bbb     0.0530     2.043     0.729     0.681  0.4611  0.8873  0.0012
              Bcc     0.0611     2.357     0.841     0.786  0.8871 -0.4610  0.0241
 
              Baa    -0.0295    -1.136    -0.405    -0.379 -0.4393  0.8790 -0.1853
     8 N(14)  Bbb    -0.0218    -0.840    -0.300    -0.280  0.8975  0.4383 -0.0491
              Bcc     0.0513     1.977     0.705     0.659 -0.0381  0.1878  0.9815
 
              Baa    -0.0083    -4.431    -1.581    -1.478  0.1337  0.6593  0.7398
     9 H(1)   Bbb    -0.0039    -2.094    -0.747    -0.698 -0.5847  0.6553 -0.4783
              Bcc     0.0122     6.525     2.328     2.176  0.8002  0.3686 -0.4731
 
              Baa    -0.0079    -4.198    -1.498    -1.400  0.0752  0.8203 -0.5669
    10 H(1)   Bbb    -0.0050    -2.649    -0.945    -0.884 -0.5728  0.5009  0.6489
              Bcc     0.0128     6.847     2.443     2.284  0.8163  0.2759  0.5075
 

 ---------------------------------------------------------------------------------

 1\1\GINC-LOCALHOST\SP\UB3LYP\6-31+G(d)\C3H4N2S1(1+,2)\PVBHARATAM\12-Ju
 l-2020\0\\# b3lyp/6-31+g(d)\\ATZ+1\\1,2\C,0,0.779364,0.198182,-0.00006
 2\C,0,-1.205174,1.173681,0.00023\C,0,-1.646351,-0.121379,0.000139\S,0,
 -0.289161,-1.197602,-0.000315\H,0,-1.84527,2.04874,0.00046\H,0,-2.6662
 37,-0.482881,0.00047\N,0,0.16084,1.346491,0.000226\N,0,2.176275,-0.019
 408,-0.000893\H,0,2.606059,0.409693,-0.818647\H,0,2.60518,0.393607,0.8
 25573\\Version=EM64L-G09RevB.01\State=2-A\HF=-624.0748638\S2=0.759115\
 S2-1=0.\S2A=0.750046\RMSD=3.934e-09\Dipole=-0.8460969,0.2587456,0.0057
 503\Quadrupole=9.0031834,-4.2684331,-4.7347503,0.7865408,0.0309403,-0.
 0170715\PG=C01 [X(C3H4N2S1)]\\@


 I DON'T EXACTLY UNDERSTAND WHAT YOU ARE SAYING,
 BUT YOU ARE ABSOLUTELY RIGHT.
     M.S.GORDON, IN A NDSU FACULTY MEETING
 Job cpu time:  0 days  0 hours  2 minutes 30.6 seconds.
 File lengths (MBytes):  RWF=     16 Int=      0 D2E=      0 Chk=      2 Scr=      1
 Normal termination of Gaussian 09 at Sun Jul 12 22:30:21 2020.
