 Entering Gaussian System, Link 0=g09
 Input=ATZ-1.gjf
 Output=ATZ-1.log
 Initial command:
 /home/pvbharatam/guass/g09/l1.exe /home/pvbharatam/GAUSS_SCRDIR/Gau-26025.inp -scrdir=/home/pvbharatam/GAUSS_SCRDIR/
 Entering Link 1 = /home/pvbharatam/guass/g09/l1.exe PID=     26026.
  
 Copyright (c) 1988,1990,1992,1993,1995,1998,2003,2009,2010,
            Gaussian, Inc.  All Rights Reserved.
  
 This is part of the Gaussian(R) 09 program.  It is based on
 the Gaussian(R) 03 system (copyright 2003, Gaussian, Inc.),
 the Gaussian(R) 98 system (copyright 1998, Gaussian, Inc.),
 the Gaussian(R) 94 system (copyright 1995, Gaussian, Inc.),
 the Gaussian 92(TM) system (copyright 1992, Gaussian, Inc.),
 the Gaussian 90(TM) system (copyright 1990, Gaussian, Inc.),
 the Gaussian 88(TM) system (copyright 1988, Gaussian, Inc.),
 the Gaussian 86(TM) system (copyright 1986, Carnegie Mellon
 University), and the Gaussian 82(TM) system (copyright 1983,
 Carnegie Mellon University). Gaussian is a federally registered
 trademark of Gaussian, Inc.
  
 This software contains proprietary and confidential information,
 including trade secrets, belonging to Gaussian, Inc.
  
 This software is provided under written license and may be
 used, copied, transmitted, or stored only in accord with that
 written license.
  
 The following legend is applicable only to US Government
 contracts under FAR:
  
                    RESTRICTED RIGHTS LEGEND
  
 Use, reproduction and disclosure by the US Government is
 subject to restrictions as set forth in subparagraphs (a)
 and (c) of the Commercial Computer Software - Restricted
 Rights clause in FAR 52.227-19.
  
 Gaussian, Inc.
 340 Quinnipiac St., Bldg. 40, Wallingford CT 06492
  
  
 ---------------------------------------------------------------
 Warning -- This program may not be used in any manner that
 competes with the business of Gaussian, Inc. or will provide
 assistance to any competitor of Gaussian, Inc.  The licensee
 of this program is prohibited from giving any competitor of
 Gaussian, Inc. access to this program.  By using this program,
 the user acknowledges that Gaussian, Inc. is engaged in the
 business of creating and licensing software in the field of
 computational chemistry and represents and warrants to the
 licensee that it is not a competitor of Gaussian, Inc. and that
 it will not use this program in any manner prohibited above.
 ---------------------------------------------------------------
  

 Cite this work as:
 Gaussian 09, Revision B.01,
 M. J. Frisch, G. W. Trucks, H. B. Schlegel, G. E. Scuseria, 
 M. A. Robb, J. R. Cheeseman, G. Scalmani, V. Barone, B. Mennucci, 
 G. A. Petersson, H. Nakatsuji, M. Caricato, X. Li, H. P. Hratchian, 
 A. F. Izmaylov, J. Bloino, G. Zheng, J. L. Sonnenberg, M. Hada, 
 M. Ehara, K. Toyota, R. Fukuda, J. Hasegawa, M. Ishida, T. Nakajima, 
 Y. Honda, O. Kitao, H. Nakai, T. Vreven, J. A. Montgomery, Jr., 
 J. E. Peralta, F. Ogliaro, M. Bearpark, J. J. Heyd, E. Brothers, 
 K. N. Kudin, V. N. Staroverov, T. Keith, R. Kobayashi, J. Normand, 
 K. Raghavachari, A. Rendell, J. C. Burant, S. S. Iyengar, J. Tomasi, 
 M. Cossi, N. Rega, J. M. Millam, M. Klene, J. E. Knox, J. B. Cross, 
 V. Bakken, C. Adamo, J. Jaramillo, R. Gomperts, R. E. Stratmann, 
 O. Yazyev, A. J. Austin, R. Cammi, C. Pomelli, J. W. Ochterski, 
 R. L. Martin, K. Morokuma, V. G. Zakrzewski, G. A. Voth, 
 P. Salvador, J. J. Dannenberg, S. Dapprich, A. D. Daniels, 
 O. Farkas, J. B. Foresman, J. V. Ortiz, J. Cioslowski, 
 and D. J. Fox, Gaussian, Inc., Wallingford CT, 2010.
 
 ******************************************
 Gaussian 09:  EM64L-G09RevB.01 12-Aug-2010
                12-Jul-2020 
 ******************************************
 %nprocshared=4
 Will use up to    4 processors via shared memory.
 %mem=4GB
 %chk=ATZ-1.chk
 -----------------
 # b3lyp/6-31+g(d)
 -----------------
 1/38=1/1;
 2/12=2,17=6,18=5,40=1/2;
 3/5=1,6=6,7=11,11=2,16=1,25=1,30=1,74=-5/1,2,3;
 4//1;
 5/5=2,38=5/2;
 6/7=2,8=2,9=2,10=2,28=1/1;
 99/5=1,9=1/99;
 -----
 ATZ-1
 -----
 Symbolic Z-matrix:
 Charge = -1 Multiplicity = 2
 C                     0.77936   0.19818  -0.00006 
 C                    -1.20517   1.17368   0.00023 
 C                    -1.64635  -0.12138   0.00014 
 S                    -0.28916  -1.1976   -0.00032 
 H                    -1.84527   2.04874   0.00046 
 H                    -2.66624  -0.48288   0.00047 
 N                     0.16084   1.34649   0.00023 
 N                     2.17627  -0.01941  -0.00089 
 H                     2.60606   0.40969  -0.81865 
 H                     2.60518   0.39361   0.82557 
 
                          Input orientation:                          
 ---------------------------------------------------------------------
 Center     Atomic      Atomic             Coordinates (Angstroms)
 Number     Number       Type             X           Y           Z
 ---------------------------------------------------------------------
      1          6           0        0.779364    0.198182   -0.000062
      2          6           0       -1.205174    1.173681    0.000230
      3          6           0       -1.646351   -0.121379    0.000139
      4         16           0       -0.289161   -1.197602   -0.000315
      5          1           0       -1.845270    2.048740    0.000460
      6          1           0       -2.666237   -0.482881    0.000470
      7          7           0        0.160840    1.346491    0.000226
      8          7           0        2.176275   -0.019408   -0.000893
      9          1           0        2.606059    0.409693   -0.818647
     10          1           0        2.605180    0.393607    0.825573
 ---------------------------------------------------------------------
                    Distance matrix (angstroms):
                    1          2          3          4          5
     1  C    0.000000
     2  C    2.211332   0.000000
     3  C    2.446674   1.368144   0.000000
     4  S    1.757828   2.542059   1.732115   0.000000
     5  H    3.211428   1.084182   2.179217   3.600029   0.000000
     6  H    3.512266   2.208824   1.082059   2.482200   2.661408
     7  N    1.304295   1.376901   2.328214   2.583585   2.125472
     8  N    1.413756   3.585758   3.823986   2.732493   4.522174
     9  H    2.012867   3.972371   4.362962   3.411065   4.813703
    10  H    2.013323   3.975991   4.361430   3.404592   4.819417
                    6          7          8          9         10
     6  H    0.000000
     7  N    3.367338   0.000000
     8  N    4.864641   2.434679   0.000000
     9  H    5.409690   2.743581   1.018609   0.000000
    10  H    5.407112   2.750270   1.018620   1.644299   0.000000
 Stoichiometry    C3H4N2S(1-,2)
 Framework group  C1[X(C3H4N2S)]
 Deg. of freedom    24
 Full point group                 C1      NOp   1
 Largest Abelian subgroup         C1      NOp   1
 Largest concise Abelian subgroup C1      NOp   1
                         Standard orientation:                         
 ---------------------------------------------------------------------
 Center     Atomic      Atomic             Coordinates (Angstroms)
 Number     Number       Type             X           Y           Z
 ---------------------------------------------------------------------
      1          6           0        0.779364    0.198182   -0.000062
      2          6           0       -1.205174    1.173681    0.000230
      3          6           0       -1.646351   -0.121379    0.000139
      4         16           0       -0.289161   -1.197602   -0.000315
      5          1           0       -1.845269    2.048740    0.000460
      6          1           0       -2.666237   -0.482880    0.000470
      7          7           0        0.160841    1.346491    0.000226
      8          7           0        2.176275   -0.019409   -0.000893
      9          1           0        2.606059    0.409692   -0.818647
     10          1           0        2.605180    0.393606    0.825573
 ---------------------------------------------------------------------
 Rotational constants (GHZ):      5.3465283      3.3195889      2.0708736
 Standard basis: 6-31+G(d) (6D, 7F)
 There are   126 symmetry adapted basis functions of A   symmetry.
 Integral buffers will be    131072 words long.
 Raffenetti 2 integral format.
 Two-electron integral symmetry is turned on.
   126 basis functions,   232 primitive gaussians,   126 cartesian basis functions
    27 alpha electrons       26 beta electrons
       nuclear repulsion energy       277.1973135826 Hartrees.
 NAtoms=   10 NActive=   10 NUniq=   10 SFac= 1.00D+00 NAtFMM=   50 NAOKFM=F Big=F
 One-electron integrals computed using PRISM.
 NBasis=   126 RedAO= T  NBF=   126
 NBsUse=   126 1.00D-06 NBFU=   126
 Harris functional with IExCor=  402 diagonalized for initial guess.
 ExpMin= 4.05D-02 ExpMax= 2.19D+04 ExpMxC= 3.30D+03 IAcc=2 IRadAn=         0 AccDes= 0.00D+00
 HarFok:  IExCor=  402 AccDes= 0.00D+00 IRadAn=         0 IDoV= 1
 ScaDFX=  1.000000  1.000000  1.000000  1.000000
 FoFCou: FMM=F IPFlag=           0 FMFlag=      100000 FMFlg1=           0
         NFxFlg=           0 DoJE=T BraDBF=F KetDBF=T FulRan=T
         Omega=  0.000000  0.000000  1.000000  0.000000  0.000000 ICntrl=     500 IOpCl=  0
         NMat0=    1 NMatS0=    1 NMatT0=    0 NMatD0=    1 NMtDS0=    0 NMtDT0=    0
         I1Cent=           4 NGrid=           0.
 Petite list used in FoFCou.
 Initial guess orbital symmetries:
 Alpha Orbitals:
       Occupied  (A) (A) (A) (A) (A) (A) (A) (A) (A) (A) (A) (A)
                 (A) (A) (A) (A) (A) (A) (A) (A) (A) (A) (A) (A)
                 (A) (A) (A)
       Virtual   (A) (A) (A) (A) (A) (A) (A) (A) (A) (A) (A) (A)
                 (A) (A) (A) (A) (A) (A) (A) (A) (A) (A) (A) (A)
                 (A) (A) (A) (A) (A) (A) (A) (A) (A) (A) (A) (A)
                 (A) (A) (A) (A) (A) (A) (A) (A) (A) (A) (A) (A)
                 (A) (A) (A) (A) (A) (A) (A) (A) (A) (A) (A) (A)
                 (A) (A) (A) (A) (A) (A) (A) (A) (A) (A) (A) (A)
                 (A) (A) (A) (A) (A) (A) (A) (A) (A) (A) (A) (A)
                 (A) (A) (A) (A) (A) (A) (A) (A) (A) (A) (A) (A)
                 (A) (A) (A)
 Beta  Orbitals:
       Occupied  (A) (A) (A) (A) (A) (A) (A) (A) (A) (A) (A) (A)
                 (A) (A) (A) (A) (A) (A) (A) (A) (A) (A) (A) (A)
                 (A) (A)
       Virtual   (A) (A) (A) (A) (A) (A) (A) (A) (A) (A) (A) (A)
                 (A) (A) (A) (A) (A) (A) (A) (A) (A) (A) (A) (A)
                 (A) (A) (A) (A) (A) (A) (A) (A) (A) (A) (A) (A)
                 (A) (A) (A) (A) (A) (A) (A) (A) (A) (A) (A) (A)
                 (A) (A) (A) (A) (A) (A) (A) (A) (A) (A) (A) (A)
                 (A) (A) (A) (A) (A) (A) (A) (A) (A) (A) (A) (A)
                 (A) (A) (A) (A) (A) (A) (A) (A) (A) (A) (A) (A)
                 (A) (A) (A) (A) (A) (A) (A) (A) (A) (A) (A) (A)
                 (A) (A) (A) (A)
 The electronic state of the initial guess is 2-A.
 Initial guess <Sx>= 0.0000 <Sy>= 0.0000 <Sz>= 0.5000 <S**2>= 0.7500 S= 0.5000
 Requested convergence on RMS density matrix=1.00D-08 within 128 cycles.
 Requested convergence on MAX density matrix=1.00D-06.
 Requested convergence on             energy=1.00D-06.
 No special actions if energy rises.
 Keep R1 and R2 ints in memory in canonical form, NReq=65201138.
 SCF Done:  E(UB3LYP) =  -624.373639251     A.U. after   32 cycles
             Convg  =    0.4983D-08             -V/T =  2.0051
 <Sx>= 0.0000 <Sy>= 0.0000 <Sz>= 0.5000 <S**2>= 0.7608 S= 0.5054
 <L.S>= 0.000000000000E+00
 Annihilation of the first spin contaminant:
 S**2 before annihilation     0.7608,   after     0.7500

 **********************************************************************

            Population analysis using the SCF density.

 **********************************************************************

 Orbital symmetries:
 Alpha Orbitals:
       Occupied  (A) (A) (A) (A) (A) (A) (A) (A) (A) (A) (A) (A)
                 (A) (A) (A) (A) (A) (A) (A) (A) (A) (A) (A) (A)
                 (A) (A) (A)
       Virtual   (A) (A) (A) (A) (A) (A) (A) (A) (A) (A) (A) (A)
                 (A) (A) (A) (A) (A) (A) (A) (A) (A) (A) (A) (A)
                 (A) (A) (A) (A) (A) (A) (A) (A) (A) (A) (A) (A)
                 (A) (A) (A) (A) (A) (A) (A) (A) (A) (A) (A) (A)
                 (A) (A) (A) (A) (A) (A) (A) (A) (A) (A) (A) (A)
                 (A) (A) (A) (A) (A) (A) (A) (A) (A) (A) (A) (A)
                 (A) (A) (A) (A) (A) (A) (A) (A) (A) (A) (A) (A)
                 (A) (A) (A) (A) (A) (A) (A) (A) (A) (A) (A) (A)
                 (A) (A) (A)
 Beta  Orbitals:
       Occupied  (A) (A) (A) (A) (A) (A) (A) (A) (A) (A) (A) (A)
                 (A) (A) (A) (A) (A) (A) (A) (A) (A) (A) (A) (A)
                 (A) (A)
       Virtual   (A) (A) (A) (A) (A) (A) (A) (A) (A) (A) (A) (A)
                 (A) (A) (A) (A) (A) (A) (A) (A) (A) (A) (A) (A)
                 (A) (A) (A) (A) (A) (A) (A) (A) (A) (A) (A) (A)
                 (A) (A) (A) (A) (A) (A) (A) (A) (A) (A) (A) (A)
                 (A) (A) (A) (A) (A) (A) (A) (A) (A) (A) (A) (A)
                 (A) (A) (A) (A) (A) (A) (A) (A) (A) (A) (A) (A)
                 (A) (A) (A) (A) (A) (A) (A) (A) (A) (A) (A) (A)
                 (A) (A) (A) (A) (A) (A) (A) (A) (A) (A) (A) (A)
                 (A) (A) (A) (A)
 The electronic state is 2-A.
 Alpha  occ. eigenvalues --  -88.70527 -14.17536 -14.13238 -10.04214 -10.02115
 Alpha  occ. eigenvalues --  -10.00328  -7.76572  -5.72970  -5.72654  -5.72314
 Alpha  occ. eigenvalues --   -0.77334  -0.70724  -0.59320  -0.52611  -0.39180
 Alpha  occ. eigenvalues --   -0.37917  -0.33766  -0.30813  -0.25793  -0.22222
 Alpha  occ. eigenvalues --   -0.20471  -0.16635  -0.10263  -0.09101  -0.08391
 Alpha  occ. eigenvalues --   -0.05805   0.10779
 Alpha virt. eigenvalues --    0.12844   0.14237   0.15672   0.17420   0.18754
 Alpha virt. eigenvalues --    0.19048   0.19940   0.20088   0.21650   0.21972
 Alpha virt. eigenvalues --    0.22332   0.22645   0.25549   0.26555   0.27380
 Alpha virt. eigenvalues --    0.27386   0.28562   0.29694   0.30445   0.33236
 Alpha virt. eigenvalues --    0.33441   0.34015   0.36036   0.36196   0.37901
 Alpha virt. eigenvalues --    0.40129   0.40751   0.42629   0.44778   0.46486
 Alpha virt. eigenvalues --    0.47652   0.50410   0.50751   0.57140   0.67078
 Alpha virt. eigenvalues --    0.67617   0.67949   0.72179   0.73688   0.80189
 Alpha virt. eigenvalues --    0.81604   0.84270   0.87624   0.89780   1.00683
 Alpha virt. eigenvalues --    1.01145   1.02104   1.03896   1.07922   1.08536
 Alpha virt. eigenvalues --    1.09214   1.11880   1.13918   1.14042   1.17180
 Alpha virt. eigenvalues --    1.20315   1.22485   1.22936   1.24668   1.26631
 Alpha virt. eigenvalues --    1.28212   1.30357   1.34709   1.38020   1.41126
 Alpha virt. eigenvalues --    1.54986   1.56767   1.61866   1.67739   1.69415
 Alpha virt. eigenvalues --    1.75707   1.81860   1.93481   1.99470   2.06191
 Alpha virt. eigenvalues --    2.13947   2.20211   2.24355   2.31114   2.31459
 Alpha virt. eigenvalues --    2.43341   2.45062   2.50482   2.53998   2.60293
 Alpha virt. eigenvalues --    2.65941   2.66593   2.80776   2.83776   2.91160
 Alpha virt. eigenvalues --    3.03218   3.18433   3.27493   4.14019   4.18060
 Alpha virt. eigenvalues --    4.36873   4.43342   4.59142   4.63677
  Beta  occ. eigenvalues --  -88.70464 -14.17602 -14.13206 -10.03464 -10.02088
  Beta  occ. eigenvalues --   -9.99885  -7.76511  -5.72956  -5.72638  -5.72067
  Beta  occ. eigenvalues --   -0.76732  -0.70522  -0.58804  -0.51974  -0.38434
  Beta  occ. eigenvalues --   -0.37277  -0.33159  -0.30487  -0.25554  -0.21878
  Beta  occ. eigenvalues --   -0.18946  -0.16114  -0.10279  -0.08218  -0.07612
  Beta  occ. eigenvalues --   -0.03110
  Beta virt. eigenvalues --    0.12904   0.14222   0.15596   0.17349   0.17690
  Beta virt. eigenvalues --    0.18781   0.19594   0.20056   0.20380   0.21907
  Beta virt. eigenvalues --    0.22205   0.22343   0.23408   0.25620   0.26613
  Beta virt. eigenvalues --    0.27495   0.28301   0.28536   0.30057   0.30551
  Beta virt. eigenvalues --    0.33520   0.33651   0.34227   0.36090   0.36624
  Beta virt. eigenvalues --    0.38134   0.40276   0.41162   0.42826   0.45020
  Beta virt. eigenvalues --    0.46565   0.48062   0.50728   0.51133   0.57645
  Beta virt. eigenvalues --    0.67367   0.68134   0.68446   0.72485   0.73965
  Beta virt. eigenvalues --    0.81805   0.82338   0.85917   0.87919   0.90748
  Beta virt. eigenvalues --    1.01646   1.02351   1.02400   1.04338   1.07986
  Beta virt. eigenvalues --    1.08862   1.09320   1.12236   1.14227   1.14402
  Beta virt. eigenvalues --    1.17374   1.20711   1.22816   1.23366   1.24921
  Beta virt. eigenvalues --    1.27207   1.28371   1.30814   1.35433   1.38267
  Beta virt. eigenvalues --    1.41514   1.55412   1.57853   1.62594   1.68794
  Beta virt. eigenvalues --    1.69456   1.75855   1.83541   1.93686   2.01135
  Beta virt. eigenvalues --    2.06507   2.15186   2.20577   2.24646   2.31914
  Beta virt. eigenvalues --    2.32871   2.44540   2.46915   2.51592   2.54769
  Beta virt. eigenvalues --    2.60785   2.66652   2.67019   2.82107   2.84078
  Beta virt. eigenvalues --    2.91639   3.03731   3.18661   3.27733   4.14218
  Beta virt. eigenvalues --    4.18189   4.37123   4.44197   4.59723   4.64901
          Condensed to atoms (all electrons):
              1          2          3          4          5          6
     1  C    7.436226  -0.318067   0.364875  -1.445462   0.047068   0.010511
     2  C   -0.318067   5.946872  -0.564785   0.369055   0.438590  -0.004415
     3  C    0.364875  -0.564785   7.518005  -0.970219  -0.124611   0.308522
     4  S   -1.445462   0.369055  -0.970219  18.022553  -0.019831  -0.020501
     5  H    0.047068   0.438590  -0.124611  -0.019831   0.622139  -0.002042
     6  H    0.010511  -0.004415   0.308522  -0.020501  -0.002042   0.548553
     7  N    0.163414   0.301637  -0.048257  -0.000827  -0.078088   0.011439
     8  N    0.173467   0.103405  -0.114556  -0.002483  -0.002947   0.000493
     9  H   -0.090324   0.008260  -0.007568   0.024451   0.000003   0.000001
    10  H   -0.085442   0.006829  -0.003910   0.018074   0.000003   0.000001
              7          8          9         10
     1  C    0.163414   0.173467  -0.090324  -0.085442
     2  C    0.301637   0.103405   0.008260   0.006829
     3  C   -0.048257  -0.114556  -0.007568  -0.003910
     4  S   -0.000827  -0.002483   0.024451   0.018074
     5  H   -0.078088  -0.002947   0.000003   0.000003
     6  H    0.011439   0.000493   0.000001   0.000001
     7  N    7.242730  -0.345881  -0.001261  -0.001713
     8  N   -0.345881   7.379805   0.327896   0.327227
     9  H   -0.001261   0.327896   0.455407  -0.066045
    10  H   -0.001713   0.327227  -0.066045   0.455732
 Mulliken atomic charges:
              1
     1  C   -0.256267
     2  C   -0.287381
     3  C   -0.357498
     4  S    0.025191
     5  H    0.119715
     6  H    0.147436
     7  N   -0.243193
     8  N   -0.846425
     9  H    0.349180
    10  H    0.349244
 Sum of Mulliken atomic charges =  -1.00000
 Mulliken charges with hydrogens summed into heavy atoms:
              1
     1  C   -0.256267
     2  C   -0.167666
     3  C   -0.210063
     4  S    0.025191
     7  N   -0.243193
     8  N   -0.148002
 Sum of Mulliken charges with hydrogens summed into heavy atoms =  -1.00000
          Atomic-Atomic Spin Densities.
              1          2          3          4          5          6
     1  C    1.330451  -0.376111   0.514375  -0.709418   0.000720   0.001497
     2  C   -0.376111   0.524084  -0.724788   0.429842   0.001845  -0.010863
     3  C    0.514375  -0.724788   1.572164  -0.924394  -0.000032   0.015236
     4  S   -0.709418   0.429842  -0.924394   1.273810  -0.000733  -0.005690
     5  H    0.000720   0.001845  -0.000032  -0.000733  -0.005438   0.000156
     6  H    0.001497  -0.010863   0.015236  -0.005690   0.000156  -0.020599
     7  N   -0.267407   0.187590  -0.128767   0.115274  -0.000527  -0.000475
     8  N   -0.060444   0.023197  -0.029384   0.057404   0.000046  -0.000042
     9  H   -0.051684   0.007571  -0.008149   0.019419   0.000000   0.000000
    10  H   -0.047146   0.006036  -0.004591   0.013803   0.000000   0.000000
              7          8          9         10
     1  C   -0.267407  -0.060444  -0.051684  -0.047146
     2  C    0.187590   0.023197   0.007571   0.006036
     3  C   -0.128767  -0.029384  -0.008149  -0.004591
     4  S    0.115274   0.057404   0.019419   0.013803
     5  H   -0.000527   0.000046   0.000000   0.000000
     6  H   -0.000475  -0.000042   0.000000   0.000000
     7  N    0.096559   0.020229   0.005525   0.005008
     8  N    0.020229  -0.050068   0.011161   0.010721
     9  H    0.005525   0.011161   0.065192  -0.021933
    10  H    0.005008   0.010721  -0.021933   0.065698
 Mulliken atomic spin densities:
              1
     1  C    0.334832
     2  C    0.068402
     3  C    0.281670
     4  S    0.269315
     5  H   -0.003965
     6  H   -0.020781
     7  N    0.033009
     8  N   -0.017180
     9  H    0.027101
    10  H    0.027596
 Sum of Mulliken atomic spin densities =   1.00000
 Electronic spatial extent (au):  <R**2>=            612.3272
 Charge=             -1.0000 electrons
 Dipole moment (field-independent basis, Debye):
    X=              0.7289    Y=              0.2331    Z=              0.0238  Tot=              0.7656
 Quadrupole moment (field-independent basis, Debye-Ang):
   XX=            -51.0186   YY=            -60.0969   ZZ=            -50.9758
   XY=              2.5236   XZ=              0.0621   YZ=             -0.0164
 Traceless Quadrupole moment (field-independent basis, Debye-Ang):
   XX=              3.0118   YY=             -6.0664   ZZ=              3.0546
   XY=              2.5236   XZ=              0.0621   YZ=             -0.0164
 Octapole moment (field-independent basis, Debye-Ang**2):
  XXX=             11.3555  YYY=             -3.1629  ZZZ=              0.1266  XYY=             -3.1560
  XXY=              8.7764  XXZ=             -0.0758  XZZ=             11.8163  YZZ=              3.0600
  YYZ=              0.2099  XYZ=             -0.1194
 Hexadecapole moment (field-independent basis, Debye-Ang**3):
 XXXX=           -536.3022 YYYY=           -401.5315 ZZZZ=            -95.6038 XXXY=             34.3951
 XXXZ=              0.9202 YYYX=             -2.5309 YYYZ=              0.0431 ZZZX=              0.2086
 ZZZY=             -0.0182 XXYY=           -151.0000 XXZZ=           -105.5004 YYZZ=            -91.1066
 XXYZ=             -0.0087 YYXZ=             -0.1819 ZZXY=              5.8828
 N-N= 2.771973135826D+02 E-N=-3.047434798331D+03  KE= 9.310724354611D+02
                          Isotropic Fermi Contact Couplings
        Atom                 a.u.       MegaHertz       Gauss      10(-4) cm-1
     1  C(13)              0.05524      62.10424      22.16034      20.71575
     2  C(13)             -0.00203      -2.28592      -0.81567      -0.76250
     3  C(13)              0.03313      37.24801      13.29102      12.42460
     4  S(33)              0.00452       1.55399       0.55450       0.51836
     5  H(1)              -0.00118      -5.27090      -1.88079      -1.75818
     6  H(1)              -0.00562     -25.10861      -8.95938      -8.37533
     7  N(14)             -0.00020      -0.06542      -0.02334      -0.02182
     8  N(14)             -0.01652      -5.33779      -1.90465      -1.78049
     9  H(1)               0.01021      45.63718      16.28448      15.22292
    10  H(1)               0.01045      46.69594      16.66227      15.57609
 --------------------------------------------------------
       Center         ----  Spin Dipole Couplings  ----
                      3XX-RR        3YY-RR        3ZZ-RR
 --------------------------------------------------------
     1   Atom       -0.294069     -0.299591      0.593660
     2   Atom       -0.014813     -0.013891      0.028704
     3   Atom       -0.167879     -0.179576      0.347455
     4   Atom       -0.326276     -0.329840      0.656116
     5   Atom        0.001912      0.001475     -0.003387
     6   Atom        0.021206     -0.020722     -0.000484
     7   Atom       -0.035874     -0.038852      0.074726
     8   Atom        0.007469     -0.002205     -0.005264
     9   Atom        0.011305     -0.005641     -0.005664
    10   Atom        0.011334     -0.005645     -0.005689
 --------------------------------------------------------
                        XY            XZ            YZ
 --------------------------------------------------------
     1   Atom        0.005852     -0.000596     -0.001601
     2   Atom        0.001879     -0.000241      0.000961
     3   Atom       -0.000345      0.002190      0.001251
     4   Atom       -0.019978      0.004299     -0.000945
     5   Atom       -0.006587      0.000086     -0.000116
     6   Atom        0.014163     -0.000414     -0.000124
     7   Atom       -0.005595     -0.000170     -0.000372
     8   Atom        0.000386     -0.000097     -0.000253
     9   Atom        0.001615     -0.004087      0.000788
    10   Atom        0.001530      0.004131     -0.000849
 --------------------------------------------------------


 ---------------------------------------------------------------------------------
              Anisotropic Spin Dipole Couplings in Principal Axis System
 ---------------------------------------------------------------------------------

       Atom             a.u.   MegaHertz   Gauss  10(-4) cm-1        Axes

              Baa    -0.3033   -40.700   -14.523   -13.576 -0.5353  0.8447  0.0012
     1 C(13)  Bbb    -0.2904   -38.964   -13.903   -12.997  0.8447  0.5353  0.0015
              Bcc     0.5937    79.664    28.426    26.573 -0.0007 -0.0018  1.0000
 
              Baa    -0.0163    -2.187    -0.780    -0.730  0.7851 -0.6191  0.0174
     2 C(13)  Bbb    -0.0124    -1.668    -0.595    -0.556  0.6194  0.7850 -0.0147
              Bcc     0.0287     3.855     1.376     1.286 -0.0046  0.0223  0.9997
 
              Baa    -0.1796   -24.099    -8.599    -8.039  0.0299  0.9996 -0.0025
     3 C(13)  Bbb    -0.1679   -22.528    -8.038    -7.514  0.9995 -0.0299 -0.0042
              Bcc     0.3475    46.627    16.638    15.553  0.0042  0.0024  1.0000
 
              Baa    -0.3481   -14.273    -5.093    -4.761  0.6751  0.7377 -0.0022
     4 S(33)  Bbb    -0.3080   -12.628    -4.506    -4.212  0.7377 -0.6751 -0.0040
              Bcc     0.6561    26.901     9.599     8.973  0.0044 -0.0010  1.0000
 
              Baa    -0.0049    -2.613    -0.932    -0.872  0.6951  0.7188  0.0157
     5 H(1)   Bbb    -0.0034    -1.808    -0.645    -0.603 -0.0196 -0.0028  0.9998
              Bcc     0.0083     4.421     1.578     1.475  0.7187 -0.6952  0.0122
 
              Baa    -0.0251   -13.370    -4.771    -4.460 -0.2927  0.9562 -0.0001
     6 H(1)   Bbb    -0.0005    -0.262    -0.094    -0.087  0.0158  0.0050  0.9999
              Bcc     0.0255    13.632     4.864     4.547  0.9561  0.2927 -0.0166
 
              Baa    -0.0432    -1.664    -0.594    -0.555  0.6094  0.7929  0.0034
     7 N(14)  Bbb    -0.0316    -1.218    -0.435    -0.406  0.7929 -0.6094 -0.0009
              Bcc     0.0747     2.882     1.028     0.961 -0.0014 -0.0032  1.0000
 
              Baa    -0.0053    -0.204    -0.073    -0.068  0.0051  0.0812  0.9967
     8 N(14)  Bbb    -0.0022    -0.085    -0.030    -0.028 -0.0406  0.9959 -0.0809
              Bcc     0.0075     0.289     0.103     0.096  0.9992  0.0400 -0.0084
 
              Baa    -0.0074    -3.935    -1.404    -1.313  0.2225 -0.5675  0.7927
     9 H(1)   Bbb    -0.0050    -2.653    -0.947    -0.885  0.0617  0.8197  0.5695
              Bcc     0.0123     6.588     2.351     2.198  0.9730  0.0778 -0.2174
 
              Baa    -0.0074    -3.969    -1.416    -1.324 -0.2210  0.5645  0.7953
    10 H(1)   Bbb    -0.0049    -2.635    -0.940    -0.879  0.0662  0.8223 -0.5653
              Bcc     0.0124     6.604     2.357     2.203  0.9730  0.0723  0.2191
 

 ---------------------------------------------------------------------------------

 1\1\GINC-LOCALHOST\SP\UB3LYP\6-31+G(d)\C3H4N2S1(1-,2)\PVBHARATAM\12-Ju
 l-2020\0\\# b3lyp/6-31+g(d)\\ATZ-1\\-1,2\C,0,0.779364,0.198182,-0.0000
 62\C,0,-1.205174,1.173681,0.00023\C,0,-1.646351,-0.121379,0.000139\S,0
 ,-0.289161,-1.197602,-0.000315\H,0,-1.84527,2.04874,0.00046\H,0,-2.666
 237,-0.482881,0.00047\N,0,0.16084,1.346491,0.000226\N,0,2.176275,-0.01
 9408,-0.000893\H,0,2.606059,0.409693,-0.818647\H,0,2.60518,0.393607,0.
 825573\\Version=EM64L-G09RevB.01\State=2-A\HF=-624.3736393\S2=0.760775
 \S2-1=0.\S2A=0.75004\RMSD=4.983e-09\Dipole=0.2867667,0.0917071,0.00935
 63\Quadrupole=2.2392141,-4.5102468,2.2710327,1.8762731,0.0461419,-0.01
 22095\PG=C01 [X(C3H4N2S1)]\\@


 DEFINE YOUR TERMS, YOU WILL PERMIT ME AGAIN TO SAY, 
 OR WE SHALL NEVER UNDERSTAND ONE ANOTHER.

                                    -- VOLTAIRE
 Job cpu time:  0 days  0 hours  3 minutes 15.2 seconds.
 File lengths (MBytes):  RWF=     16 Int=      0 D2E=      0 Chk=      2 Scr=      1
 Normal termination of Gaussian 09 at Sun Jul 12 22:30:50 2020.
