 Entering Gaussian System, Link 0=g09
 Input=ATZ.gjf
 Output=ATZ.log
 Initial command:
 /home/pvbharatam/guass/g09/l1.exe /home/pvbharatam/GAUSS_SCRDIR/Gau-5432.inp -scrdir=/home/pvbharatam/GAUSS_SCRDIR/
 Entering Link 1 = /home/pvbharatam/guass/g09/l1.exe PID=      5433.
  
 Copyright (c) 1988,1990,1992,1993,1995,1998,2003,2009,2010,
            Gaussian, Inc.  All Rights Reserved.
  
 This is part of the Gaussian(R) 09 program.  It is based on
 the Gaussian(R) 03 system (copyright 2003, Gaussian, Inc.),
 the Gaussian(R) 98 system (copyright 1998, Gaussian, Inc.),
 the Gaussian(R) 94 system (copyright 1995, Gaussian, Inc.),
 the Gaussian 92(TM) system (copyright 1992, Gaussian, Inc.),
 the Gaussian 90(TM) system (copyright 1990, Gaussian, Inc.),
 the Gaussian 88(TM) system (copyright 1988, Gaussian, Inc.),
 the Gaussian 86(TM) system (copyright 1986, Carnegie Mellon
 University), and the Gaussian 82(TM) system (copyright 1983,
 Carnegie Mellon University). Gaussian is a federally registered
 trademark of Gaussian, Inc.
  
 This software contains proprietary and confidential information,
 including trade secrets, belonging to Gaussian, Inc.
  
 This software is provided under written license and may be
 used, copied, transmitted, or stored only in accord with that
 written license.
  
 The following legend is applicable only to US Government
 contracts under FAR:
  
                    RESTRICTED RIGHTS LEGEND
  
 Use, reproduction and disclosure by the US Government is
 subject to restrictions as set forth in subparagraphs (a)
 and (c) of the Commercial Computer Software - Restricted
 Rights clause in FAR 52.227-19.
  
 Gaussian, Inc.
 340 Quinnipiac St., Bldg. 40, Wallingford CT 06492
  
  
 ---------------------------------------------------------------
 Warning -- This program may not be used in any manner that
 competes with the business of Gaussian, Inc. or will provide
 assistance to any competitor of Gaussian, Inc.  The licensee
 of this program is prohibited from giving any competitor of
 Gaussian, Inc. access to this program.  By using this program,
 the user acknowledges that Gaussian, Inc. is engaged in the
 business of creating and licensing software in the field of
 computational chemistry and represents and warrants to the
 licensee that it is not a competitor of Gaussian, Inc. and that
 it will not use this program in any manner prohibited above.
 ---------------------------------------------------------------
  

 Cite this work as:
 Gaussian 09, Revision B.01,
 M. J. Frisch, G. W. Trucks, H. B. Schlegel, G. E. Scuseria, 
 M. A. Robb, J. R. Cheeseman, G. Scalmani, V. Barone, B. Mennucci, 
 G. A. Petersson, H. Nakatsuji, M. Caricato, X. Li, H. P. Hratchian, 
 A. F. Izmaylov, J. Bloino, G. Zheng, J. L. Sonnenberg, M. Hada, 
 M. Ehara, K. Toyota, R. Fukuda, J. Hasegawa, M. Ishida, T. Nakajima, 
 Y. Honda, O. Kitao, H. Nakai, T. Vreven, J. A. Montgomery, Jr., 
 J. E. Peralta, F. Ogliaro, M. Bearpark, J. J. Heyd, E. Brothers, 
 K. N. Kudin, V. N. Staroverov, T. Keith, R. Kobayashi, J. Normand, 
 K. Raghavachari, A. Rendell, J. C. Burant, S. S. Iyengar, J. Tomasi, 
 M. Cossi, N. Rega, J. M. Millam, M. Klene, J. E. Knox, J. B. Cross, 
 V. Bakken, C. Adamo, J. Jaramillo, R. Gomperts, R. E. Stratmann, 
 O. Yazyev, A. J. Austin, R. Cammi, C. Pomelli, J. W. Ochterski, 
 R. L. Martin, K. Morokuma, V. G. Zakrzewski, G. A. Voth, 
 P. Salvador, J. J. Dannenberg, S. Dapprich, A. D. Daniels, 
 O. Farkas, J. B. Foresman, J. V. Ortiz, J. Cioslowski, 
 and D. J. Fox, Gaussian, Inc., Wallingford CT, 2010.
 
 ******************************************
 Gaussian 09:  EM64L-G09RevB.01 12-Aug-2010
                17-Jul-2020 
 ******************************************
 %nprocshared=8
 Will use up to    8 processors via shared memory.
 %mem=8GB
 %chk=ATZ.chk
 ----------------------------------
 # opt freq=noraman b3lyp/6-31+g(d)
 ----------------------------------
 1/14=-1,18=20,19=15,26=3,38=1/1,3;
 2/9=110,12=2,17=6,18=5,40=1/2;
 3/5=1,6=6,7=11,11=2,16=1,25=1,30=1,71=1,74=-5/1,2,3;
 4//1;
 5/5=2,38=5/2;
 6/7=2,8=2,9=2,10=2,28=1/1;
 7//1,2,3,16;
 1/14=-1,18=20,19=15/3(2);
 2/9=110/2;
 99//99;
 2/9=110/2;
 3/5=1,6=6,7=11,11=2,16=1,25=1,30=1,71=1,74=-5/1,2,3;
 4/5=5,16=3/1;
 5/5=2,38=5/2;
 7//1,2,3,16;
 1/14=-1,18=20,19=15/3(-5);
 2/9=110/2;
 6/7=2,8=2,9=2,10=2,19=2,28=1/1;
 99/9=1/99;
 ---
 ATZ
 ---
 Symbolic Z-matrix:
 Charge =  0 Multiplicity = 1
 C                    -0.02874  -1.20838  -0.00001 
 C                    -1.29287   0.59544   0.00004 
 C                    -0.07762   1.2232    0.00007 
 S                     1.19223   0.04298  -0.00003 
 H                    -2.25307   1.0984   -0.0003 
 H                     0.13449   2.28382   0.00005 
 N                    -1.25894  -0.78226  -0.00002 
 N                     0.35042  -2.62863   0.00035 
 H                    -0.01936  -3.07216   0.81677 
 H                    -0.01874  -3.0724   -0.81622 
 

 GradGradGradGradGradGradGradGradGradGradGradGradGradGradGradGradGradGrad
 Berny optimization.
 Initialization pass.
                           ----------------------------
                           !    Initial Parameters    !
                           ! (Angstroms and Degrees)  !
 --------------------------                            --------------------------
 ! Name  Definition              Value          Derivative Info.                !
 --------------------------------------------------------------------------------
 ! R1    R(1,4)                  1.7483         estimate D2E/DX2                !
 ! R2    R(1,7)                  1.3019         estimate D2E/DX2                !
 ! R3    R(1,8)                  1.47           estimate D2E/DX2                !
 ! R4    R(2,3)                  1.3678         estimate D2E/DX2                !
 ! R5    R(2,5)                  1.0839         estimate D2E/DX2                !
 ! R6    R(2,7)                  1.3781         estimate D2E/DX2                !
 ! R7    R(3,4)                  1.7336         estimate D2E/DX2                !
 ! R8    R(3,6)                  1.0816         estimate D2E/DX2                !
 ! R9    R(8,9)                  1.0            estimate D2E/DX2                !
 ! R10   R(8,10)                 1.0            estimate D2E/DX2                !
 ! A1    A(4,1,7)              115.1911         estimate D2E/DX2                !
 ! A2    A(4,1,8)              120.7563         estimate D2E/DX2                !
 ! A3    A(7,1,8)              124.0527         estimate D2E/DX2                !
 ! A4    A(3,2,5)              125.0348         estimate D2E/DX2                !
 ! A5    A(3,2,7)              115.9088         estimate D2E/DX2                !
 ! A6    A(5,2,7)              119.0564         estimate D2E/DX2                !
 ! A7    A(2,3,4)              109.7755         estimate D2E/DX2                !
 ! A8    A(2,3,6)              128.6284         estimate D2E/DX2                !
 ! A9    A(4,3,6)              121.5961         estimate D2E/DX2                !
 ! A10   A(1,4,3)               88.609          estimate D2E/DX2                !
 ! A11   A(1,7,2)              110.5156         estimate D2E/DX2                !
 ! A12   A(1,8,9)              109.4712         estimate D2E/DX2                !
 ! A13   A(1,8,10)             109.4712         estimate D2E/DX2                !
 ! A14   A(9,8,10)             109.4713         estimate D2E/DX2                !
 ! D1    D(7,1,4,3)              0.004          estimate D2E/DX2                !
 ! D2    D(8,1,4,3)           -179.9807         estimate D2E/DX2                !
 ! D3    D(4,1,7,2)             -0.0034         estimate D2E/DX2                !
 ! D4    D(8,1,7,2)            179.9808         estimate D2E/DX2                !
 ! D5    D(4,1,8,9)            120.0113         estimate D2E/DX2                !
 ! D6    D(4,1,8,10)          -119.9887         estimate D2E/DX2                !
 ! D7    D(7,1,8,9)            -59.972          estimate D2E/DX2                !
 ! D8    D(7,1,8,10)            60.028          estimate D2E/DX2                !
 ! D9    D(5,2,3,4)           -179.9753         estimate D2E/DX2                !
 ! D10   D(5,2,3,6)              0.0177         estimate D2E/DX2                !
 ! D11   D(7,2,3,4)              0.0023         estimate D2E/DX2                !
 ! D12   D(7,2,3,6)            179.9953         estimate D2E/DX2                !
 ! D13   D(3,2,7,1)              0.0006         estimate D2E/DX2                !
 ! D14   D(5,2,7,1)            179.9797         estimate D2E/DX2                !
 ! D15   D(2,3,4,1)             -0.0033         estimate D2E/DX2                !
 ! D16   D(6,3,4,1)           -179.9969         estimate D2E/DX2                !
 --------------------------------------------------------------------------------
 Trust Radius=3.00D-01 FncErr=1.00D-07 GrdErr=1.00D-06
 Number of steps in this run=     50 maximum allowed number of steps=    100.
 GradGradGradGradGradGradGradGradGradGradGradGradGradGradGradGradGradGrad

                          Input orientation:                          
 ---------------------------------------------------------------------
 Center     Atomic      Atomic             Coordinates (Angstroms)
 Number     Number       Type             X           Y           Z
 ---------------------------------------------------------------------
      1          6           0       -0.028744   -1.208377   -0.000010
      2          6           0       -1.292868    0.595440    0.000037
      3          6           0       -0.077618    1.223201    0.000072
      4         16           0        1.192232    0.042978   -0.000030
      5          1           0       -2.253066    1.098396   -0.000298
      6          1           0        0.134485    2.283817    0.000046
      7          7           0       -1.258941   -0.782264   -0.000017
      8          7           0        0.350424   -2.628634    0.000349
      9          1           0       -0.019361   -3.072158    0.816772
     10          1           0       -0.018738   -3.072405   -0.816221
 ---------------------------------------------------------------------
                    Distance matrix (angstroms):
                    1          2          3          4          5
     1  C    0.000000
     2  C    2.202672   0.000000
     3  C    2.432069   1.367814   0.000000
     4  S    1.748334   2.545768   1.733622   0.000000
     5  H    3.204498   1.083949   2.179025   3.603330   0.000000
     6  H    3.496007   2.210872   1.081616   2.477940   2.665637
     7  N    1.301905   1.378122   2.327534   2.586363   2.127244
     8  N    1.470000   3.618711   3.875546   2.801099   4.546308
     9  H    2.034920   3.967386   4.372699   3.440813   4.801100
    10  H    2.034920   3.967716   4.372874   3.440672   4.801409
                    6          7          8          9         10
     6  H    0.000000
     7  N    3.367861   0.000000
     8  N    4.917195   2.449314   0.000000
     9  H    5.420071   2.728977   1.000000   0.000000
    10  H    5.420229   2.729292   1.000000   1.632993   0.000000
 Stoichiometry    C3H4N2S
 Framework group  C1[X(C3H4N2S)]
 Deg. of freedom    24
 Full point group                 C1      NOp   1
 Largest Abelian subgroup         C1      NOp   1
 Largest concise Abelian subgroup C1      NOp   1
                         Standard orientation:                         
 ---------------------------------------------------------------------
 Center     Atomic      Atomic             Coordinates (Angstroms)
 Number     Number       Type             X           Y           Z
 ---------------------------------------------------------------------
      1          6           0       -0.765205    0.165523   -0.000063
      2          6           0        1.180118    1.198713   -0.000016
      3          6           0        1.653989   -0.084393    0.000019
      4         16           0        0.326843   -1.199798   -0.000083
      5          1           0        1.797115    2.089926   -0.000351
      6          1           0        2.680557   -0.425059   -0.000007
      7          7           0       -0.191335    1.334124   -0.000070
      8          7           0       -2.221260   -0.036475    0.000297
      9          1           0       -2.616048    0.384947    0.816720
     10          1           0       -2.616369    0.384359   -0.816274
 ---------------------------------------------------------------------
 Rotational constants (GHZ):      5.3316666      3.2558351      2.0433951
 Standard basis: 6-31+G(d) (6D, 7F)
 There are   126 symmetry adapted basis functions of A   symmetry.
 Integral buffers will be    131072 words long.
 Raffenetti 2 integral format.
 Two-electron integral symmetry is turned on.
   126 basis functions,   232 primitive gaussians,   126 cartesian basis functions
    26 alpha electrons       26 beta electrons
       nuclear repulsion energy       276.1180883124 Hartrees.
 NAtoms=   10 NActive=   10 NUniq=   10 SFac= 1.00D+00 NAtFMM=   50 NAOKFM=F Big=F
 One-electron integrals computed using PRISM.
 NBasis=   126 RedAO= T  NBF=   126
 NBsUse=   126 1.00D-06 NBFU=   126
 Harris functional with IExCor=  402 diagonalized for initial guess.
 ExpMin= 4.05D-02 ExpMax= 2.19D+04 ExpMxC= 3.30D+03 IAcc=2 IRadAn=         0 AccDes= 0.00D+00
 HarFok:  IExCor=  402 AccDes= 0.00D+00 IRadAn=         0 IDoV= 1
 ScaDFX=  1.000000  1.000000  1.000000  1.000000
 FoFCou: FMM=F IPFlag=           0 FMFlag=      100000 FMFlg1=           0
         NFxFlg=           0 DoJE=T BraDBF=F KetDBF=T FulRan=T
         Omega=  0.000000  0.000000  1.000000  0.000000  0.000000 ICntrl=     500 IOpCl=  0
         NMat0=    1 NMatS0=    1 NMatT0=    0 NMatD0=    1 NMtDS0=    0 NMtDT0=    0
         I1Cent=           4 NGrid=           0.
 Petite list used in FoFCou.
 Initial guess orbital symmetries:
       Occupied  (A) (A) (A) (A) (A) (A) (A) (A) (A) (A) (A) (A)
                 (A) (A) (A) (A) (A) (A) (A) (A) (A) (A) (A) (A)
                 (A) (A)
       Virtual   (A) (A) (A) (A) (A) (A) (A) (A) (A) (A) (A) (A)
                 (A) (A) (A) (A) (A) (A) (A) (A) (A) (A) (A) (A)
                 (A) (A) (A) (A) (A) (A) (A) (A) (A) (A) (A) (A)
                 (A) (A) (A) (A) (A) (A) (A) (A) (A) (A) (A) (A)
                 (A) (A) (A) (A) (A) (A) (A) (A) (A) (A) (A) (A)
                 (A) (A) (A) (A) (A) (A) (A) (A) (A) (A) (A) (A)
                 (A) (A) (A) (A) (A) (A) (A) (A) (A) (A) (A) (A)
                 (A) (A) (A) (A) (A) (A) (A) (A) (A) (A) (A) (A)
                 (A) (A) (A) (A)
 The electronic state of the initial guess is 1-A.
 Requested convergence on RMS density matrix=1.00D-08 within 128 cycles.
 Requested convergence on MAX density matrix=1.00D-06.
 Requested convergence on             energy=1.00D-06.
 No special actions if energy rises.
 Keep R1 ints in memory in canonical form, NReq=33189382.
 SCF Done:  E(RB3LYP) =  -624.408232258     A.U. after   13 cycles
             Convg  =    0.8874D-08             -V/T =  2.0057

 **********************************************************************

            Population analysis using the SCF density.

 **********************************************************************

 Orbital symmetries:
       Occupied  (A) (A) (A) (A) (A) (A) (A) (A) (A) (A) (A) (A)
                 (A) (A) (A) (A) (A) (A) (A) (A) (A) (A) (A) (A)
                 (A) (A)
       Virtual   (A) (A) (A) (A) (A) (A) (A) (A) (A) (A) (A) (A)
                 (A) (A) (A) (A) (A) (A) (A) (A) (A) (A) (A) (A)
                 (A) (A) (A) (A) (A) (A) (A) (A) (A) (A) (A) (A)
                 (A) (A) (A) (A) (A) (A) (A) (A) (A) (A) (A) (A)
                 (A) (A) (A) (A) (A) (A) (A) (A) (A) (A) (A) (A)
                 (A) (A) (A) (A) (A) (A) (A) (A) (A) (A) (A) (A)
                 (A) (A) (A) (A) (A) (A) (A) (A) (A) (A) (A) (A)
                 (A) (A) (A) (A) (A) (A) (A) (A) (A) (A) (A) (A)
                 (A) (A) (A) (A)
 The electronic state is 1-A.
 Alpha  occ. eigenvalues --  -88.92937 -14.35024 -14.34916 -10.29026 -10.23151
 Alpha  occ. eigenvalues --  -10.23077  -7.98943  -5.95323  -5.94987  -5.94680
 Alpha  occ. eigenvalues --   -0.98407  -0.89396  -0.81015  -0.73569  -0.60011
 Alpha  occ. eigenvalues --   -0.57182  -0.51745  -0.51523  -0.45489  -0.42831
 Alpha  occ. eigenvalues --   -0.41093  -0.37552  -0.29444  -0.29233  -0.28025
 Alpha  occ. eigenvalues --   -0.25636
 Alpha virt. eigenvalues --   -0.03679  -0.00353   0.00018   0.01707   0.02788
 Alpha virt. eigenvalues --    0.03750   0.04742   0.05312   0.05777   0.07865
 Alpha virt. eigenvalues --    0.07922   0.08911   0.09669   0.11024   0.12571
 Alpha virt. eigenvalues --    0.13253   0.13489   0.13629   0.16139   0.16142
 Alpha virt. eigenvalues --    0.17174   0.19299   0.19499   0.20842   0.20968
 Alpha virt. eigenvalues --    0.22627   0.24194   0.26172   0.26703   0.27562
 Alpha virt. eigenvalues --    0.28737   0.30923   0.32354   0.35593   0.37409
 Alpha virt. eigenvalues --    0.47191   0.48172   0.49508   0.52702   0.54835
 Alpha virt. eigenvalues --    0.60360   0.62057   0.64408   0.67654   0.70639
 Alpha virt. eigenvalues --    0.79948   0.80971   0.82553   0.83136   0.90026
 Alpha virt. eigenvalues --    0.91367   0.92233   0.92509   0.95182   0.96177
 Alpha virt. eigenvalues --    0.99489   1.01659   1.01966   1.04267   1.05817
 Alpha virt. eigenvalues --    1.07621   1.09003   1.11959   1.16142   1.18570
 Alpha virt. eigenvalues --    1.21544   1.35766   1.35854   1.41313   1.47435
 Alpha virt. eigenvalues --    1.49680   1.54905   1.60783   1.71090   1.78333
 Alpha virt. eigenvalues --    1.87268   1.92111   1.97860   2.04015   2.09481
 Alpha virt. eigenvalues --    2.13446   2.23191   2.23540   2.28699   2.35679
 Alpha virt. eigenvalues --    2.36439   2.43521   2.45735   2.58932   2.62713
 Alpha virt. eigenvalues --    2.69631   2.81752   2.96894   3.05089   3.92316
 Alpha virt. eigenvalues --    3.98448   4.15537   4.21411   4.37999   4.41702
          Condensed to atoms (all electrons):
              1          2          3          4          5          6
     1  C    6.343097   0.017750  -0.035472  -0.626611   0.036992   0.004186
     2  C    0.017750   5.294158   0.249990   0.033473   0.404427   0.008430
     3  C   -0.035472   0.249990   5.792467  -0.015698  -0.075300   0.310421
     4  S   -0.626611   0.033473  -0.015698  16.352725  -0.013097  -0.014257
     5  H    0.036992   0.404427  -0.075300  -0.013097   0.526232  -0.001430
     6  H    0.004186   0.008430   0.310421  -0.014257  -0.001430   0.464422
     7  N    0.238115   0.117043   0.079293  -0.056356  -0.068218   0.005899
     8  N    0.354874   0.065358  -0.046514  -0.074198  -0.001600   0.000388
     9  H   -0.039478   0.002493  -0.000592   0.003305   0.000004   0.000001
    10  H   -0.039472   0.002497  -0.000587   0.003304   0.000004   0.000001
              7          8          9         10
     1  C    0.238115   0.354874  -0.039478  -0.039472
     2  C    0.117043   0.065358   0.002493   0.002497
     3  C    0.079293  -0.046514  -0.000592  -0.000587
     4  S   -0.056356  -0.074198   0.003305   0.003304
     5  H   -0.068218  -0.001600   0.000004   0.000004
     6  H    0.005899   0.000388   0.000001   0.000001
     7  N    7.083896  -0.274713  -0.002103  -0.002097
     8  N   -0.274713   7.125716   0.321563   0.321529
     9  H   -0.002103   0.321563   0.351839  -0.036746
    10  H   -0.002097   0.321529  -0.036746   0.351853
 Mulliken atomic charges:
              1
     1  C   -0.253980
     2  C   -0.195619
     3  C   -0.258008
     4  S    0.407412
     5  H    0.191987
     6  H    0.221939
     7  N   -0.120759
     8  N   -0.792402
     9  H    0.399714
    10  H    0.399714
 Sum of Mulliken atomic charges =   0.00000
 Mulliken charges with hydrogens summed into heavy atoms:
              1
     1  C   -0.253980
     2  C   -0.003631
     3  C   -0.036069
     4  S    0.407412
     7  N   -0.120759
     8  N    0.007027
 Sum of Mulliken charges with hydrogens summed into heavy atoms =   0.00000
 Electronic spatial extent (au):  <R**2>=            589.7820
 Charge=              0.0000 electrons
 Dipole moment (field-independent basis, Debye):
    X=              0.6910    Y=              0.0419    Z=             -0.0006  Tot=              0.6923
 Quadrupole moment (field-independent basis, Debye-Ang):
   XX=            -35.2452   YY=            -45.8104   ZZ=            -42.6639
   XY=             -2.2180   XZ=              0.0007   YZ=              0.0012
 Traceless Quadrupole moment (field-independent basis, Debye-Ang):
   XX=              5.9946   YY=             -4.5705   ZZ=             -1.4241
   XY=             -2.2180   XZ=              0.0007   YZ=              0.0012
 Octapole moment (field-independent basis, Debye-Ang**2):
  XXX=             -4.1186  YYY=             -4.5385  ZZZ=              0.0014  XYY=              8.1750
  XXY=             10.4863  XXZ=             -0.0055  XZZ=             -9.0788  YZZ=              0.2494
  YYZ=             -0.0014  XYZ=             -0.0057
 Hexadecapole moment (field-independent basis, Debye-Ang**3):
 XXXX=           -405.0852 YYYY=           -297.6588 ZZZZ=            -55.5844 XXXY=            -37.0987
 XXXZ=              0.0252 YYYX=             10.5202 YYYZ=             -0.0028 ZZZX=              0.0115
 ZZZY=              0.0006 XXYY=           -123.4294 XXZZ=            -79.6052 YYZZ=            -61.0657
 XXYZ=              0.0078 YYXZ=              0.0012 ZZXY=             -4.2069
 N-N= 2.761180883124D+02 E-N=-2.023575810094D+03  KE= 6.208626505372D+02
 Calling FoFJK, ICntrl=      2127 FMM=F ISym2X=0 I1Cent= 0 IOpClX= 0 NMat=1 NMatS=1 NMatT=0.
 ***** Axes restored to original set *****
 -------------------------------------------------------------------
 Center     Atomic                   Forces (Hartrees/Bohr)
 Number     Number              X              Y              Z
 -------------------------------------------------------------------
      1        6           0.001428169   -0.036631680    0.000020549
      2        6           0.000048008    0.000718191   -0.000024247
      3        6          -0.000060417    0.000558679   -0.000006679
      4       16           0.000255795   -0.002093880    0.000012063
      5        1          -0.000094826    0.000158057    0.000015452
      6        1          -0.000236527    0.000372175   -0.000002329
      7        7           0.000478444    0.004615502    0.000006668
      8        7           0.012181124    0.046830507   -0.000017143
      9        1          -0.007006976   -0.007258759    0.011728877
     10        1          -0.006992795   -0.007268791   -0.011733211
 -------------------------------------------------------------------
 Cartesian Forces:  Max     0.046830507 RMS     0.011819755

 GradGradGradGradGradGradGradGradGradGradGradGradGradGradGradGradGradGrad
 Berny optimization.
 Internal  Forces:  Max     0.031678173 RMS     0.006398875
 Search for a local minimum.
 Step number   1 out of a maximum of   50
 All quantities printed in internal units (Hartrees-Bohrs-Radians)
 Mixed Optimization -- RFO/linear search
 Second derivative matrix not updated -- first step.
 ITU=  0
     Eigenvalues ---    0.00766   0.01399   0.01736   0.02073   0.02343
     Eigenvalues ---    0.02433   0.05453   0.16000   0.16000   0.16000
     Eigenvalues ---    0.16000   0.22456   0.24754   0.25000   0.29970
     Eigenvalues ---    0.31561   0.35521   0.35740   0.35800   0.47480
     Eigenvalues ---    0.47688   0.47688   0.49349   0.63859
 RFO step:  Lambda=-4.44829213D-03 EMin= 7.65814439D-03
 Linear search not attempted -- first point.
 Iteration  1 RMS(Cart)=  0.01926283 RMS(Int)=  0.00030432
 Iteration  2 RMS(Cart)=  0.00039007 RMS(Int)=  0.00004553
 Iteration  3 RMS(Cart)=  0.00000026 RMS(Int)=  0.00004553
 Variable       Old X    -DE/DX   Delta X   Delta X   Delta X     New X
                                 (Linear)    (Quad)   (Total)
    R1        3.30387  -0.00047   0.00000  -0.00143  -0.00143   3.30244
    R2        2.46024   0.00187   0.00000   0.00291   0.00291   2.46316
    R3        2.77790  -0.03168   0.00000  -0.08754  -0.08754   2.69035
    R4        2.58479  -0.00048   0.00000  -0.00102  -0.00103   2.58377
    R5        2.04837   0.00016   0.00000   0.00044   0.00044   2.04881
    R6        2.60427   0.00085   0.00000   0.00178   0.00178   2.60605
    R7        3.27607   0.00050   0.00000   0.00129   0.00129   3.27736
    R8        2.04396   0.00032   0.00000   0.00088   0.00088   2.04484
    R9        1.88973   0.01538   0.00000   0.03196   0.03196   1.92169
   R10        1.88973   0.01539   0.00000   0.03197   0.03197   1.92169
    A1        2.01046  -0.00204   0.00000  -0.00757  -0.00756   2.00290
    A2        2.10759  -0.00733   0.00000  -0.02904  -0.02904   2.07855
    A3        2.16513   0.00937   0.00000   0.03661   0.03660   2.20173
    A4        2.18227  -0.00004   0.00000  -0.00034  -0.00034   2.18193
    A5        2.02299  -0.00011   0.00000  -0.00048  -0.00048   2.02251
    A6        2.07793   0.00015   0.00000   0.00082   0.00082   2.07874
    A7        1.91594  -0.00061   0.00000  -0.00323  -0.00323   1.91271
    A8        2.24499  -0.00001   0.00000  -0.00031  -0.00030   2.24468
    A9        2.12225   0.00062   0.00000   0.00353   0.00354   2.12579
   A10        1.54652   0.00158   0.00000   0.00587   0.00587   1.55239
   A11        1.92886   0.00118   0.00000   0.00541   0.00541   1.93427
   A12        1.91063  -0.00042   0.00000  -0.00823  -0.00833   1.90231
   A13        1.91063  -0.00040   0.00000  -0.00815  -0.00824   1.90239
   A14        1.91063  -0.00116   0.00000  -0.01844  -0.01863   1.89200
    D1        0.00007  -0.00001   0.00000  -0.00028  -0.00028  -0.00021
    D2       -3.14126  -0.00001   0.00000  -0.00047  -0.00046   3.14147
    D3       -0.00006   0.00001   0.00000   0.00021   0.00021   0.00015
    D4        3.14126   0.00001   0.00000   0.00040   0.00040  -3.14153
    D5        2.09459   0.00096   0.00000   0.01653   0.01645   2.11104
    D6       -2.09420  -0.00096   0.00000  -0.01608  -0.01599  -2.11019
    D7       -1.04671   0.00096   0.00000   0.01634   0.01625  -1.03046
    D8        1.04769  -0.00096   0.00000  -0.01627  -0.01619   1.03149
    D9       -3.14116  -0.00001   0.00000  -0.00048  -0.00048   3.14154
   D10        0.00031  -0.00001   0.00000  -0.00020  -0.00020   0.00011
   D11        0.00004   0.00000   0.00000  -0.00020  -0.00020  -0.00016
   D12        3.14151   0.00000   0.00000   0.00008   0.00008   3.14159
   D13        0.00001   0.00000   0.00000   0.00000   0.00000   0.00001
   D14        3.14124   0.00001   0.00000   0.00026   0.00026   3.14150
   D15       -0.00006   0.00001   0.00000   0.00025   0.00026   0.00020
   D16       -3.14154   0.00000   0.00000   0.00000   0.00000  -3.14154
         Item               Value     Threshold  Converged?
 Maximum Force            0.031678     0.000450     NO 
 RMS     Force            0.006399     0.000300     NO 
 Maximum Displacement     0.066662     0.001800     NO 
 RMS     Displacement     0.019159     0.001200     NO 
 Predicted change in Energy=-2.253577D-03
 GradGradGradGradGradGradGradGradGradGradGradGradGradGradGradGradGradGrad

                          Input orientation:                          
 ---------------------------------------------------------------------
 Center     Atomic      Atomic             Coordinates (Angstroms)
 Number     Number       Type             X           Y           Z
 ---------------------------------------------------------------------
      1          6           0       -0.039837   -1.227912    0.000223
      2          6           0       -1.293859    0.590421   -0.000005
      3          6           0       -0.075608    1.211141   -0.000117
      4         16           0        1.184286    0.019304    0.000280
      5          1           0       -2.251269    1.099160   -0.000152
      6          1           0        0.142183    2.271078   -0.000272
      7          7           0       -1.266942   -0.788378    0.000181
      8          7           0        0.363151   -2.593359    0.000330
      9          1           0       -0.017584   -3.050752    0.824918
     10          1           0       -0.016715   -3.050710   -0.824686
 ---------------------------------------------------------------------
                    Distance matrix (angstroms):
                    1          2          3          4          5
     1  C    0.000000
     2  C    2.208824   0.000000
     3  C    2.439315   1.367271   0.000000
     4  S    1.747577   2.543104   1.734304   0.000000
     5  H    3.210248   1.084181   2.178541   3.601268   0.000000
     6  H    3.503721   2.210617   1.082081   2.481223   2.664960
     7  N    1.303447   1.379061   2.327521   2.580865   2.128779
     8  N    1.423673   3.589169   3.829717   2.738662   4.524366
     9  H    2.000841   3.945569   4.341404   3.398494   4.784544
    10  H    2.000901   3.945761   4.341285   3.398228   4.784821
                    6          7          8          9         10
     6  H    0.000000
     7  N    3.368369   0.000000
     8  N    4.869453   2.432110   0.000000
     9  H    5.387796   2.712826   1.016914   0.000000
    10  H    5.387610   2.713231   1.016916   1.649604   0.000000
 Stoichiometry    C3H4N2S
 Framework group  C1[X(C3H4N2S)]
 Deg. of freedom    24
 Full point group                 C1      NOp   1
 Largest Abelian subgroup         C1      NOp   1
 Largest concise Abelian subgroup C1      NOp   1
                         Standard orientation:                         
 ---------------------------------------------------------------------
 Center     Atomic      Atomic             Coordinates (Angstroms)
 Number     Number       Type             X           Y           Z
 ---------------------------------------------------------------------
      1          6           0        0.773778    0.187569   -0.000061
      2          6           0       -1.200532    1.178027    0.000168
      3          6           0       -1.646778   -0.114372    0.000280
      4         16           0       -0.292129   -1.197301   -0.000117
      5          1           0       -1.836809    2.055865    0.000315
      6          1           0       -2.666402   -0.476680    0.000435
      7          7           0        0.168737    1.342082   -0.000018
      8          7           0        2.181841   -0.022678   -0.000167
      9          1           0        2.582175    0.417663   -0.824755
     10          1           0        2.582253    0.416797    0.824849
 ---------------------------------------------------------------------
 Rotational constants (GHZ):      5.3508815      3.3208197      2.0721568
 Standard basis: 6-31+G(d) (6D, 7F)
 There are   126 symmetry adapted basis functions of A   symmetry.
 Integral buffers will be    131072 words long.
 Raffenetti 2 integral format.
 Two-electron integral symmetry is turned on.
   126 basis functions,   232 primitive gaussians,   126 cartesian basis functions
    26 alpha electrons       26 beta electrons
       nuclear repulsion energy       277.3114162158 Hartrees.
 NAtoms=   10 NActive=   10 NUniq=   10 SFac= 1.00D+00 NAtFMM=   50 NAOKFM=F Big=F
 One-electron integrals computed using PRISM.
 NBasis=   126 RedAO= T  NBF=   126
 NBsUse=   126 1.00D-06 NBFU=   126
 Initial guess read from the read-write file.
 B after Tr=     0.000000    0.000000    0.000000
         Rot=    1.000000    0.000000    0.000000    0.000000 Ang=   0.00 deg.
 Initial guess orbital symmetries:
       Occupied  (A) (A) (A) (A) (A) (A) (A) (A) (A) (A) (A) (A)
                 (A) (A) (A) (A) (A) (A) (A) (A) (A) (A) (A) (A)
                 (A) (A)
       Virtual   (A) (A) (A) (A) (A) (A) (A) (A) (A) (A) (A) (A)
                 (A) (A) (A) (A) (A) (A) (A) (A) (A) (A) (A) (A)
                 (A) (A) (A) (A) (A) (A) (A) (A) (A) (A) (A) (A)
                 (A) (A) (A) (A) (A) (A) (A) (A) (A) (A) (A) (A)
                 (A) (A) (A) (A) (A) (A) (A) (A) (A) (A) (A) (A)
                 (A) (A) (A) (A) (A) (A) (A) (A) (A) (A) (A) (A)
                 (A) (A) (A) (A) (A) (A) (A) (A) (A) (A) (A) (A)
                 (A) (A) (A) (A) (A) (A) (A) (A) (A) (A) (A) (A)
                 (A) (A) (A) (A)
 Harris functional with IExCor=  402 diagonalized for initial guess.
 ExpMin= 4.05D-02 ExpMax= 2.19D+04 ExpMxC= 3.30D+03 IAcc=2 IRadAn=         0 AccDes= 0.00D+00
 HarFok:  IExCor=  402 AccDes= 0.00D+00 IRadAn=         0 IDoV= 1
 ScaDFX=  1.000000  1.000000  1.000000  1.000000
 FoFCou: FMM=F IPFlag=           0 FMFlag=      100000 FMFlg1=           0
         NFxFlg=           0 DoJE=T BraDBF=F KetDBF=T FulRan=T
         Omega=  0.000000  0.000000  1.000000  0.000000  0.000000 ICntrl=     500 IOpCl=  0
         NMat0=    1 NMatS0=    1 NMatT0=    0 NMatD0=    1 NMtDS0=    0 NMtDT0=    0
         I1Cent=           4 NGrid=           0.
 Petite list used in FoFCou.
 Requested convergence on RMS density matrix=1.00D-08 within 128 cycles.
 Requested convergence on MAX density matrix=1.00D-06.
 Requested convergence on             energy=1.00D-06.
 No special actions if energy rises.
 Keep R1 ints in memory in canonical form, NReq=33189382.
 SCF Done:  E(RB3LYP) =  -624.410771669     A.U. after   14 cycles
             Convg  =    0.8531D-08             -V/T =  2.0057
 Calling FoFJK, ICntrl=      2127 FMM=F ISym2X=0 I1Cent= 0 IOpClX= 0 NMat=1 NMatS=1 NMatT=0.
 ***** Axes restored to original set *****
 -------------------------------------------------------------------
 Center     Atomic                   Forces (Hartrees/Bohr)
 Number     Number              X              Y              Z
 -------------------------------------------------------------------
      1        6          -0.000404513   -0.007690984    0.000007725
      2        6           0.000009971   -0.001045315   -0.000006417
      3        6           0.001075578    0.000484913    0.000015639
      4       16           0.001288416    0.002157368   -0.000017447
      5        1          -0.000050168   -0.000147827    0.000001248
      6        1          -0.000304198    0.000037456    0.000000103
      7        7          -0.000905773    0.003093569   -0.000007694
      8        7           0.000335613    0.009251206    0.000009823
      9        1          -0.000524570   -0.003073271   -0.000004529
     10        1          -0.000520357   -0.003067114    0.000001549
 -------------------------------------------------------------------
 Cartesian Forces:  Max     0.009251206 RMS     0.002474666

 GradGradGradGradGradGradGradGradGradGradGradGradGradGradGradGradGradGrad
 Berny optimization.
 Using GEDIIS/GDIIS optimizer.
 Internal  Forces:  Max     0.003268195 RMS     0.001315812
 Search for a local minimum.
 Step number   2 out of a maximum of   50
 All quantities printed in internal units (Hartrees-Bohrs-Radians)
 Mixed Optimization -- RFO/linear search
 Update second derivatives using D2CorX and points    1    2
 DE= -2.54D-03 DEPred=-2.25D-03 R= 1.13D+00
 SS=  1.41D+00  RLast= 1.17D-01 DXNew= 5.0454D-01 3.4975D-01
 Trust test= 1.13D+00 RLast= 1.17D-01 DXMaxT set to 3.50D-01
 ITU=  1  0
 Use linear search instead of GDIIS.
     Eigenvalues ---    0.00766   0.01414   0.01736   0.02072   0.02342
     Eigenvalues ---    0.02433   0.05718   0.15200   0.16000   0.16000
     Eigenvalues ---    0.16005   0.22349   0.23591   0.24856   0.29507
     Eigenvalues ---    0.31559   0.35520   0.35794   0.36089   0.47162
     Eigenvalues ---    0.47591   0.47688   0.49463   0.63861
 RFO step:  Lambda=-3.14108480D-04 EMin= 7.65813992D-03
 Quartic linear search produced a step of  0.12357.
 Iteration  1 RMS(Cart)=  0.01055821 RMS(Int)=  0.00020469
 Iteration  2 RMS(Cart)=  0.00016040 RMS(Int)=  0.00008033
 Iteration  3 RMS(Cart)=  0.00000008 RMS(Int)=  0.00008033
 Variable       Old X    -DE/DX   Delta X   Delta X   Delta X     New X
                                 (Linear)    (Quad)   (Total)
    R1        3.30244   0.00280  -0.00018   0.01066   0.01048   3.31292
    R2        2.46316   0.00144   0.00036   0.00238   0.00274   2.46590
    R3        2.69035  -0.00318  -0.01082  -0.00447  -0.01528   2.67507
    R4        2.58377   0.00048  -0.00013   0.00090   0.00077   2.58453
    R5        2.04881  -0.00002   0.00005  -0.00010  -0.00005   2.04876
    R6        2.60605  -0.00070   0.00022  -0.00176  -0.00154   2.60450
    R7        3.27736  -0.00034   0.00016  -0.00142  -0.00126   3.27610
    R8        2.04484  -0.00002   0.00011  -0.00013  -0.00002   2.04481
    R9        1.92169   0.00157   0.00395   0.00177   0.00572   1.92741
   R10        1.92169   0.00157   0.00395   0.00176   0.00571   1.92741
    A1        2.00290  -0.00159  -0.00093  -0.00600  -0.00693   1.99597
    A2        2.07855  -0.00125  -0.00359  -0.00393  -0.00752   2.07103
    A3        2.20173   0.00283   0.00452   0.00994   0.01446   2.21619
    A4        2.18193  -0.00018  -0.00004  -0.00023  -0.00027   2.18166
    A5        2.02251   0.00067  -0.00006   0.00282   0.00275   2.02526
    A6        2.07874  -0.00050   0.00010  -0.00258  -0.00248   2.07627
    A7        1.91271  -0.00020  -0.00040  -0.00154  -0.00195   1.91076
    A8        2.24468  -0.00022  -0.00004  -0.00130  -0.00133   2.24335
    A9        2.12579   0.00042   0.00044   0.00284   0.00328   2.12907
   A10        1.55239   0.00052   0.00073   0.00224   0.00296   1.55535
   A11        1.93427   0.00059   0.00067   0.00250   0.00317   1.93744
   A12        1.90231   0.00327  -0.00103   0.02479   0.02359   1.92590
   A13        1.90239   0.00326  -0.00102   0.02473   0.02354   1.92593
   A14        1.89200  -0.00289  -0.00230  -0.01615  -0.01880   1.87320
    D1       -0.00021   0.00001  -0.00003   0.00067   0.00064   0.00043
    D2        3.14147   0.00001  -0.00006   0.00054   0.00048  -3.14123
    D3        0.00015  -0.00001   0.00003  -0.00049  -0.00047  -0.00032
    D4       -3.14153   0.00000   0.00005  -0.00035  -0.00030   3.14136
    D5        2.11104  -0.00013   0.00203  -0.00411  -0.00222   2.10882
    D6       -2.11019   0.00014  -0.00198   0.00490   0.00306  -2.10713
    D7       -1.03046  -0.00013   0.00201  -0.00426  -0.00239  -1.03285
    D8        1.03149   0.00014  -0.00200   0.00475   0.00289   1.03438
    D9        3.14154   0.00000  -0.00006   0.00033   0.00027  -3.14137
   D10        0.00011   0.00000  -0.00002  -0.00013  -0.00015  -0.00005
   D11       -0.00016   0.00001  -0.00003   0.00052   0.00050   0.00034
   D12        3.14159   0.00000   0.00001   0.00006   0.00007  -3.14153
   D13        0.00001   0.00000   0.00000  -0.00003  -0.00003  -0.00002
   D14        3.14150   0.00000   0.00003   0.00015   0.00019  -3.14150
   D15        0.00020  -0.00001   0.00003  -0.00064  -0.00060  -0.00041
   D16       -3.14154   0.00000   0.00000  -0.00021  -0.00021   3.14143
         Item               Value     Threshold  Converged?
 Maximum Force            0.003268     0.000450     NO 
 RMS     Force            0.001316     0.000300     NO 
 Maximum Displacement     0.031432     0.001800     NO 
 RMS     Displacement     0.010603     0.001200     NO 
 Predicted change in Energy=-1.952083D-04
 GradGradGradGradGradGradGradGradGradGradGradGradGradGradGradGradGradGrad

                          Input orientation:                          
 ---------------------------------------------------------------------
 Center     Atomic      Atomic             Coordinates (Angstroms)
 Number     Number       Type             X           Y           Z
 ---------------------------------------------------------------------
      1          6           0       -0.049555   -1.231194    0.000124
      2          6           0       -1.294520    0.596869   -0.000079
      3          6           0       -0.074556    1.215113    0.000044
      4         16           0        1.179919    0.018540   -0.000303
      5          1           0       -2.250655    1.107945   -0.000115
      6          1           0        0.144134    2.274852    0.000085
      7          7           0       -1.274419   -0.781229   -0.000021
      8          7           0        0.359759   -2.586312    0.000489
      9          1           0       -0.006778   -3.067246    0.821848
     10          1           0       -0.005523   -3.067343   -0.821371
 ---------------------------------------------------------------------
                    Distance matrix (angstroms):
                    1          2          3          4          5
     1  C    0.000000
     2  C    2.211731   0.000000
     3  C    2.446435   1.367676   0.000000
     4  S    1.753123   2.541125   1.733636   0.000000
     5  H    3.211918   1.084155   2.178736   3.599394   0.000000
     6  H    3.511392   2.210283   1.082068   2.482699   2.663960
     7  N    1.304899   1.378244   2.329174   2.581357   2.126503
     8  N    1.415585   3.587378   3.826155   2.730919   4.523472
     9  H    2.012001   3.969834   4.361026   3.406796   4.810699
    10  H    2.012022   3.970200   4.361068   3.406185   4.811248
                    6          7          8          9         10
     6  H    0.000000
     7  N    3.369261   0.000000
     8  N    4.865944   2.434926   0.000000
     9  H    5.407040   2.740120   1.019940   0.000000
    10  H    5.407054   2.740626   1.019939   1.643220   0.000000
 Stoichiometry    C3H4N2S
 Framework group  C1[X(C3H4N2S)]
 Deg. of freedom    24
 Full point group                 C1      NOp   1
 Largest Abelian subgroup         C1      NOp   1
 Largest concise Abelian subgroup C1      NOp   1
                         Standard orientation:                         
 ---------------------------------------------------------------------
 Center     Atomic      Atomic             Coordinates (Angstroms)
 Number     Number       Type             X           Y           Z
 ---------------------------------------------------------------------
      1          6           0       -0.777899    0.195922    0.000135
      2          6           0        1.206507    1.172594   -0.000068
      3          6           0        1.647800   -0.121933    0.000056
      4         16           0        0.287328   -1.196462   -0.000292
      5          1           0        1.846455    2.047727   -0.000104
      6          1           0        2.666466   -0.486886    0.000096
      7          7           0       -0.160823    1.345696   -0.000010
      8          7           0       -2.176986   -0.019571    0.000501
      9          1           0       -2.601845    0.410709    0.821860
     10          1           0       -2.602117    0.409480   -0.821359
 ---------------------------------------------------------------------
 Rotational constants (GHZ):      5.3547444      3.3186472      2.0717093
 Standard basis: 6-31+G(d) (6D, 7F)
 There are   126 symmetry adapted basis functions of A   symmetry.
 Integral buffers will be    131072 words long.
 Raffenetti 2 integral format.
 Two-electron integral symmetry is turned on.
   126 basis functions,   232 primitive gaussians,   126 cartesian basis functions
    26 alpha electrons       26 beta electrons
       nuclear repulsion energy       277.2380226432 Hartrees.
 NAtoms=   10 NActive=   10 NUniq=   10 SFac= 1.00D+00 NAtFMM=   50 NAOKFM=F Big=F
 One-electron integrals computed using PRISM.
 NBasis=   126 RedAO= T  NBF=   126
 NBsUse=   126 1.00D-06 NBFU=   126
 Initial guess read from the read-write file.
 B after Tr=     0.000000    0.000000    0.000000
         Rot=    1.000000    0.000000    0.000000    0.000000 Ang=   0.00 deg.
 Initial guess orbital symmetries:
       Occupied  (A) (A) (A) (A) (A) (A) (A) (A) (A) (A) (A) (A)
                 (A) (A) (A) (A) (A) (A) (A) (A) (A) (A) (A) (A)
                 (A) (A)
       Virtual   (A) (A) (A) (A) (A) (A) (A) (A) (A) (A) (A) (A)
                 (A) (A) (A) (A) (A) (A) (A) (A) (A) (A) (A) (A)
                 (A) (A) (A) (A) (A) (A) (A) (A) (A) (A) (A) (A)
                 (A) (A) (A) (A) (A) (A) (A) (A) (A) (A) (A) (A)
                 (A) (A) (A) (A) (A) (A) (A) (A) (A) (A) (A) (A)
                 (A) (A) (A) (A) (A) (A) (A) (A) (A) (A) (A) (A)
                 (A) (A) (A) (A) (A) (A) (A) (A) (A) (A) (A) (A)
                 (A) (A) (A) (A) (A) (A) (A) (A) (A) (A) (A) (A)
                 (A) (A) (A) (A)
 Harris functional with IExCor=  402 diagonalized for initial guess.
 ExpMin= 4.05D-02 ExpMax= 2.19D+04 ExpMxC= 3.30D+03 IAcc=2 IRadAn=         0 AccDes= 0.00D+00
 HarFok:  IExCor=  402 AccDes= 0.00D+00 IRadAn=         0 IDoV= 1
 ScaDFX=  1.000000  1.000000  1.000000  1.000000
 FoFCou: FMM=F IPFlag=           0 FMFlag=      100000 FMFlg1=           0
         NFxFlg=           0 DoJE=T BraDBF=F KetDBF=T FulRan=T
         Omega=  0.000000  0.000000  1.000000  0.000000  0.000000 ICntrl=     500 IOpCl=  0
         NMat0=    1 NMatS0=    1 NMatT0=    0 NMatD0=    1 NMtDS0=    0 NMtDT0=    0
         I1Cent=           4 NGrid=           0.
 Petite list used in FoFCou.
 Requested convergence on RMS density matrix=1.00D-08 within 128 cycles.
 Requested convergence on MAX density matrix=1.00D-06.
 Requested convergence on             energy=1.00D-06.
 No special actions if energy rises.
 Keep R1 ints in memory in canonical form, NReq=33189382.
 SCF Done:  E(RB3LYP) =  -624.410980395     A.U. after   14 cycles
             Convg  =    0.8696D-08             -V/T =  2.0057
 Calling FoFJK, ICntrl=      2127 FMM=F ISym2X=0 I1Cent= 0 IOpClX= 0 NMat=1 NMatS=1 NMatT=0.
 ***** Axes restored to original set *****
 -------------------------------------------------------------------
 Center     Atomic                   Forces (Hartrees/Bohr)
 Number     Number              X              Y              Z
 -------------------------------------------------------------------
      1        6          -0.001295059   -0.001421045   -0.000029932
      2        6          -0.000321273   -0.000879674    0.000016576
      3        6           0.000748096   -0.000600957   -0.000036551
      4       16           0.000987069    0.001352231    0.000043081
      5        1          -0.000054391   -0.000029576    0.000003875
      6        1          -0.000158047   -0.000017122   -0.000006758
      7        7           0.000182068    0.001100327    0.000020526
      8        7          -0.001150235   -0.000152679   -0.000007836
      9        1           0.000528570    0.000327963   -0.000636389
     10        1           0.000533201    0.000320533    0.000633408
 -------------------------------------------------------------------
 Cartesian Forces:  Max     0.001421045 RMS     0.000645540

 GradGradGradGradGradGradGradGradGradGradGradGradGradGradGradGradGradGrad
 Berny optimization.
 Using GEDIIS/GDIIS optimizer.
 Internal  Forces:  Max     0.001385805 RMS     0.000389749
 Search for a local minimum.
 Step number   3 out of a maximum of   50
 All quantities printed in internal units (Hartrees-Bohrs-Radians)
 Mixed Optimization -- En-DIIS/RFO-DIIS
 Update second derivatives using D2CorX and points    1    2    3
 DE= -2.09D-04 DEPred=-1.95D-04 R= 1.07D+00
 SS=  1.41D+00  RLast= 4.77D-02 DXNew= 5.8820D-01 1.4318D-01
 Trust test= 1.07D+00 RLast= 4.77D-02 DXMaxT set to 3.50D-01
 ITU=  1  1  0
 Use linear search instead of GDIIS.
     Eigenvalues ---    0.00766   0.01417   0.01738   0.02070   0.02342
     Eigenvalues ---    0.02433   0.05365   0.14107   0.16000   0.16000
     Eigenvalues ---    0.16088   0.22609   0.22997   0.25063   0.28478
     Eigenvalues ---    0.31565   0.35522   0.35793   0.36379   0.47287
     Eigenvalues ---    0.47688   0.48790   0.51581   0.64005
 RFO step:  Lambda=-2.00803277D-05 EMin= 7.65805331D-03
 Quartic linear search produced a step of  0.10549.
 Iteration  1 RMS(Cart)=  0.00224313 RMS(Int)=  0.00001607
 Iteration  2 RMS(Cart)=  0.00001023 RMS(Int)=  0.00001310
 Iteration  3 RMS(Cart)=  0.00000000 RMS(Int)=  0.00001310
 Variable       Old X    -DE/DX   Delta X   Delta X   Delta X     New X
                                 (Linear)    (Quad)   (Total)
    R1        3.31292   0.00139   0.00111   0.00443   0.00554   3.31846
    R2        2.46590  -0.00017   0.00029  -0.00041  -0.00012   2.46578
    R3        2.67507  -0.00050  -0.00161  -0.00173  -0.00334   2.67173
    R4        2.58453   0.00034   0.00008   0.00061   0.00069   2.58522
    R5        2.04876   0.00003  -0.00001   0.00011   0.00011   2.04886
    R6        2.60450  -0.00099  -0.00016  -0.00215  -0.00231   2.60219
    R7        3.27610  -0.00049  -0.00013  -0.00153  -0.00166   3.27444
    R8        2.04481  -0.00005   0.00000  -0.00014  -0.00014   2.04467
    R9        1.92741  -0.00086   0.00060  -0.00189  -0.00129   1.92612
   R10        1.92741  -0.00085   0.00060  -0.00188  -0.00128   1.92613
    A1        1.99597  -0.00002  -0.00073   0.00033  -0.00040   1.99557
    A2        2.07103  -0.00034  -0.00079  -0.00144  -0.00223   2.06880
    A3        2.21619   0.00035   0.00152   0.00110   0.00263   2.21882
    A4        2.18166   0.00002  -0.00003   0.00038   0.00035   2.18201
    A5        2.02526   0.00007   0.00029  -0.00016   0.00013   2.02539
    A6        2.07627  -0.00009  -0.00026  -0.00023  -0.00049   2.07578
    A7        1.91076   0.00038  -0.00021   0.00183   0.00162   1.91239
    A8        2.24335  -0.00034  -0.00014  -0.00187  -0.00201   2.24134
    A9        2.12907  -0.00003   0.00035   0.00004   0.00039   2.12946
   A10        1.55535  -0.00051   0.00031  -0.00195  -0.00164   1.55371
   A11        1.93744   0.00008   0.00033  -0.00005   0.00028   1.93772
   A12        1.92590   0.00028   0.00249   0.00172   0.00418   1.93008
   A13        1.92593   0.00030   0.00248   0.00183   0.00428   1.93022
   A14        1.87320   0.00000  -0.00198   0.00345   0.00141   1.87461
    D1        0.00043  -0.00003   0.00007  -0.00167  -0.00160  -0.00117
    D2       -3.14123  -0.00002   0.00005  -0.00100  -0.00095   3.14100
    D3       -0.00032   0.00002  -0.00005   0.00116   0.00111   0.00080
    D4        3.14136   0.00001  -0.00003   0.00043   0.00040  -3.14143
    D5        2.10882  -0.00018  -0.00023  -0.00334  -0.00360   2.10523
    D6       -2.10713   0.00017   0.00032   0.00313   0.00348  -2.10365
    D7       -1.03285  -0.00017  -0.00025  -0.00258  -0.00286  -1.03570
    D8        1.03438   0.00018   0.00030   0.00389   0.00422   1.03860
    D9       -3.14137  -0.00001   0.00003  -0.00080  -0.00078   3.14104
   D10       -0.00005   0.00000  -0.00002   0.00023   0.00021   0.00017
   D11        0.00034  -0.00002   0.00005  -0.00142  -0.00137  -0.00103
   D12       -3.14153   0.00000   0.00001  -0.00038  -0.00038   3.14128
   D13       -0.00002   0.00000   0.00000   0.00019   0.00018   0.00016
   D14       -3.14150   0.00000   0.00002  -0.00039  -0.00037   3.14131
   D15       -0.00041   0.00003  -0.00006   0.00164   0.00158   0.00117
   D16        3.14143   0.00001  -0.00002   0.00069   0.00067  -3.14109
         Item               Value     Threshold  Converged?
 Maximum Force            0.001386     0.000450     NO 
 RMS     Force            0.000390     0.000300     NO 
 Maximum Displacement     0.006301     0.001800     NO 
 RMS     Displacement     0.002241     0.001200     NO 
 Predicted change in Energy=-1.198913D-05
 GradGradGradGradGradGradGradGradGradGradGradGradGradGradGradGradGradGrad

                          Input orientation:                          
 ---------------------------------------------------------------------
 Center     Atomic      Atomic             Coordinates (Angstroms)
 Number     Number       Type             X           Y           Z
 ---------------------------------------------------------------------
      1          6           0       -0.052631   -1.231678    0.000332
      2          6           0       -1.294747    0.597282    0.000262
      3          6           0       -0.073645    1.214085   -0.000456
      4         16           0        1.180562    0.018507    0.000935
      5          1           0       -2.250441    1.109304    0.000158
      6          1           0        0.144289    2.273904   -0.001079
      7          7           0       -1.276657   -0.779619    0.000590
      8          7           0        0.357388   -2.584734    0.000354
      9          1           0       -0.004122   -3.068741    0.821289
     10          1           0       -0.002189   -3.068316   -0.821685
 ---------------------------------------------------------------------
                    Distance matrix (angstroms):
                    1          2          3          4          5
     1  C    0.000000
     2  C    2.210870   0.000000
     3  C    2.445854   1.368041   0.000000
     4  S    1.756055   2.542073   1.732756   0.000000
     5  H    3.211007   1.084213   2.179316   3.600225   0.000000
     6  H    3.511109   2.209500   1.081995   2.482073   2.662898
     7  N    1.304836   1.377020   2.328539   2.583588   2.125155
     8  N    1.413816   3.585356   3.823195   2.730289   4.521801
     9  H    2.012740   3.972344   4.361501   3.406986   4.814173
    10  H    2.012832   3.972772   4.361019   3.406476   4.814829
                    6          7          8          9         10
     6  H    0.000000
     7  N    3.367951   0.000000
     8  N    4.863310   2.434860   0.000000
     9  H    5.407603   2.744626   1.019257   0.000000
    10  H    5.406863   2.745640   1.019262   1.642975   0.000000
 Stoichiometry    C3H4N2S
 Framework group  C1[X(C3H4N2S)]
 Deg. of freedom    24
 Full point group                 C1      NOp   1
 Largest Abelian subgroup         C1      NOp   1
 Largest concise Abelian subgroup C1      NOp   1
                         Standard orientation:                         
 ---------------------------------------------------------------------
 Center     Atomic      Atomic             Coordinates (Angstroms)
 Number     Number       Type             X           Y           Z
 ---------------------------------------------------------------------
      1          6           0        0.778375    0.198118    0.000074
      2          6           0       -1.206042    1.172817    0.000143
      3          6           0       -1.646384   -0.122419    0.000861
      4         16           0       -0.287462   -1.197488   -0.000530
      5          1           0       -1.846435    2.047696    0.000248
      6          1           0       -2.665414   -0.486134    0.001484
      7          7           0        0.159908    1.347072   -0.000184
      8          7           0        2.175413   -0.019047    0.000051
      9          1           0        2.604228    0.406475   -0.820883
     10          1           0        2.604077    0.404502    0.822090
 ---------------------------------------------------------------------
 Rotational constants (GHZ):      5.3468395      3.3217264      2.0717165
 Standard basis: 6-31+G(d) (6D, 7F)
 There are   126 symmetry adapted basis functions of A   symmetry.
 Integral buffers will be    131072 words long.
 Raffenetti 2 integral format.
 Two-electron integral symmetry is turned on.
   126 basis functions,   232 primitive gaussians,   126 cartesian basis functions
    26 alpha electrons       26 beta electrons
       nuclear repulsion energy       277.2299883933 Hartrees.
 NAtoms=   10 NActive=   10 NUniq=   10 SFac= 1.00D+00 NAtFMM=   50 NAOKFM=F Big=F
 One-electron integrals computed using PRISM.
 NBasis=   126 RedAO= T  NBF=   126
 NBsUse=   126 1.00D-06 NBFU=   126
 Initial guess read from the read-write file.
 B after Tr=     0.000000    0.000000    0.000000
         Rot=    1.000000    0.000000    0.000000    0.000000 Ang=   0.00 deg.
 Initial guess orbital symmetries:
       Occupied  (A) (A) (A) (A) (A) (A) (A) (A) (A) (A) (A) (A)
                 (A) (A) (A) (A) (A) (A) (A) (A) (A) (A) (A) (A)
                 (A) (A)
       Virtual   (A) (A) (A) (A) (A) (A) (A) (A) (A) (A) (A) (A)
                 (A) (A) (A) (A) (A) (A) (A) (A) (A) (A) (A) (A)
                 (A) (A) (A) (A) (A) (A) (A) (A) (A) (A) (A) (A)
                 (A) (A) (A) (A) (A) (A) (A) (A) (A) (A) (A) (A)
                 (A) (A) (A) (A) (A) (A) (A) (A) (A) (A) (A) (A)
                 (A) (A) (A) (A) (A) (A) (A) (A) (A) (A) (A) (A)
                 (A) (A) (A) (A) (A) (A) (A) (A) (A) (A) (A) (A)
                 (A) (A) (A) (A) (A) (A) (A) (A) (A) (A) (A) (A)
                 (A) (A) (A) (A)
 Requested convergence on RMS density matrix=1.00D-08 within 128 cycles.
 Requested convergence on MAX density matrix=1.00D-06.
 Requested convergence on             energy=1.00D-06.
 No special actions if energy rises.
 Keep R1 ints in memory in canonical form, NReq=33189382.
 SCF Done:  E(RB3LYP) =  -624.410994625     A.U. after   14 cycles
             Convg  =    0.9429D-08             -V/T =  2.0057
 Calling FoFJK, ICntrl=      2127 FMM=F ISym2X=0 I1Cent= 0 IOpClX= 0 NMat=1 NMatS=1 NMatT=0.
 ***** Axes restored to original set *****
 -------------------------------------------------------------------
 Center     Atomic                   Forces (Hartrees/Bohr)
 Number     Number              X              Y              Z
 -------------------------------------------------------------------
      1        6          -0.000611258   -0.000396725    0.000073363
      2        6          -0.000185675   -0.000025864   -0.000047928
      3        6           0.000301475   -0.000108451    0.000091417
      4       16           0.000030238    0.000551856   -0.000109980
      5        1           0.000028512    0.000058103   -0.000006218
      6        1          -0.000098186    0.000053013    0.000012155
      7        7           0.000535260    0.000153546   -0.000031210
      8        7          -0.000535621   -0.000785074    0.000023851
      9        1           0.000259071    0.000243704   -0.000220265
     10        1           0.000276186    0.000255891    0.000214815
 -------------------------------------------------------------------
 Cartesian Forces:  Max     0.000785074 RMS     0.000294223

 GradGradGradGradGradGradGradGradGradGradGradGradGradGradGradGradGradGrad
 Berny optimization.
 Using GEDIIS/GDIIS optimizer.
 Internal  Forces:  Max     0.000511211 RMS     0.000168354
 Search for a local minimum.
 Step number   4 out of a maximum of   50
 All quantities printed in internal units (Hartrees-Bohrs-Radians)
 Mixed Optimization -- En-DIIS/RFO-DIIS
 Swaping is turned off.
 Update second derivatives using D2CorX and points    1    2    3    4
 DE= -1.42D-05 DEPred=-1.20D-05 R= 1.19D+00
 SS=  1.41D+00  RLast= 1.32D-02 DXNew= 5.8820D-01 3.9718D-02
 Trust test= 1.19D+00 RLast= 1.32D-02 DXMaxT set to 3.50D-01
 ITU=  1  1  1  0
     Eigenvalues ---    0.00765   0.01425   0.01784   0.02071   0.02342
     Eigenvalues ---    0.02433   0.04364   0.13821   0.16000   0.16036
     Eigenvalues ---    0.16677   0.21166   0.22605   0.26238   0.28468
     Eigenvalues ---    0.31537   0.35521   0.35812   0.37913   0.46482
     Eigenvalues ---    0.47688   0.48189   0.50388   0.64534
 En-DIIS/RFO-DIIS IScMMF=        0 using points:     4    3
 RFO step:  Lambda=-2.47081879D-06.
 DidBck=F Rises=F RFO-DIIS coefs:    1.23872   -0.23872
 Iteration  1 RMS(Cart)=  0.00197307 RMS(Int)=  0.00000537
 Iteration  2 RMS(Cart)=  0.00000449 RMS(Int)=  0.00000365
 Iteration  3 RMS(Cart)=  0.00000000 RMS(Int)=  0.00000365
 Variable       Old X    -DE/DX   Delta X   Delta X   Delta X     New X
                                  (DIIS)     (GDIIS)  (Total)
    R1        3.31846   0.00051   0.00132   0.00207   0.00339   3.32186
    R2        2.46578  -0.00030  -0.00003  -0.00052  -0.00054   2.46524
    R3        2.67173   0.00027  -0.00080   0.00039  -0.00041   2.67132
    R4        2.58522   0.00001   0.00016   0.00003   0.00019   2.58541
    R5        2.04886   0.00000   0.00003   0.00001   0.00004   2.04890
    R6        2.60219   0.00003  -0.00055   0.00007  -0.00048   2.60171
    R7        3.27444  -0.00018  -0.00040  -0.00062  -0.00102   3.27341
    R8        2.04467   0.00003  -0.00003   0.00011   0.00008   2.04475
    R9        1.92612  -0.00039  -0.00031  -0.00076  -0.00107   1.92504
   R10        1.92613  -0.00039  -0.00031  -0.00078  -0.00109   1.92504
    A1        1.99557  -0.00033  -0.00010  -0.00173  -0.00183   1.99374
    A2        2.06880   0.00019  -0.00053   0.00076   0.00022   2.06903
    A3        2.21882   0.00014   0.00063   0.00097   0.00160   2.22042
    A4        2.18201  -0.00005   0.00008  -0.00042  -0.00034   2.18167
    A5        2.02539  -0.00003   0.00003  -0.00011  -0.00008   2.02531
    A6        2.07578   0.00008  -0.00012   0.00054   0.00042   2.07620
    A7        1.91239  -0.00005   0.00039  -0.00023   0.00015   1.91254
    A8        2.24134  -0.00009  -0.00048  -0.00075  -0.00123   2.24011
    A9        2.12946   0.00014   0.00009   0.00098   0.00108   2.13054
   A10        1.55371   0.00012  -0.00039   0.00073   0.00034   1.55405
   A11        1.93772   0.00029   0.00007   0.00135   0.00142   1.93913
   A12        1.93008   0.00003   0.00100   0.00117   0.00217   1.93225
   A13        1.93022   0.00002   0.00102   0.00111   0.00212   1.93234
   A14        1.87461   0.00014   0.00034   0.00237   0.00269   1.87730
    D1       -0.00117   0.00006  -0.00038   0.00419   0.00381   0.00264
    D2        3.14100   0.00004  -0.00023   0.00232   0.00210  -3.14009
    D3        0.00080  -0.00004   0.00027  -0.00289  -0.00262  -0.00182
    D4       -3.14143  -0.00002   0.00010  -0.00083  -0.00073   3.14102
    D5        2.10523  -0.00008  -0.00086   0.00034  -0.00052   2.10471
    D6       -2.10365   0.00012   0.00083   0.00474   0.00557  -2.09808
    D7       -1.03570  -0.00010  -0.00068  -0.00179  -0.00248  -1.03818
    D8        1.03860   0.00010   0.00101   0.00260   0.00362   1.04222
    D9        3.14104   0.00003  -0.00019   0.00198   0.00180  -3.14035
   D10        0.00017  -0.00001   0.00005  -0.00074  -0.00069  -0.00052
   D11       -0.00103   0.00005  -0.00033   0.00364   0.00332   0.00229
   D12        3.14128   0.00001  -0.00009   0.00092   0.00083  -3.14107
   D13        0.00016  -0.00001   0.00004  -0.00054  -0.00050  -0.00033
   D14        3.14131   0.00001  -0.00009   0.00101   0.00093  -3.14095
   D15        0.00117  -0.00006   0.00038  -0.00418  -0.00380  -0.00263
   D16       -3.14109  -0.00002   0.00016  -0.00166  -0.00150   3.14060
         Item               Value     Threshold  Converged?
 Maximum Force            0.000511     0.000450     NO 
 RMS     Force            0.000168     0.000300     YES
 Maximum Displacement     0.006224     0.001800     NO 
 RMS     Displacement     0.001972     0.001200     NO 
 Predicted change in Energy=-3.560795D-06
 GradGradGradGradGradGradGradGradGradGradGradGradGradGradGradGradGradGrad

                          Input orientation:                          
 ---------------------------------------------------------------------
 Center     Atomic      Atomic             Coordinates (Angstroms)
 Number     Number       Type             X           Y           Z
 ---------------------------------------------------------------------
      1          6           0       -0.054080   -1.232614    0.000235
      2          6           0       -1.294738    0.598094   -0.000296
      3          6           0       -0.073311    1.214477    0.000475
      4         16           0        1.180232    0.018987   -0.002358
      5          1           0       -2.250079    1.110813   -0.000032
      6          1           0        0.143733    2.274522    0.000995
      7          7           0       -1.277059   -0.778558   -0.000199
      8          7           0        0.355724   -2.585509    0.001102
      9          1           0       -0.003024   -3.070057    0.822224
     10          1           0        0.000408   -3.070160   -0.821445
 ---------------------------------------------------------------------
                    Distance matrix (angstroms):
                    1          2          3          4          5
     1  C    0.000000
     2  C    2.211498   0.000000
     3  C    2.447166   1.368142   0.000000
     4  S    1.757850   2.541820   1.732217   0.000000
     5  H    3.211552   1.084232   2.179236   3.599879   0.000000
     6  H    3.512710   2.208984   1.082037   2.482294   2.661683
     7  N    1.304548   1.376765   2.328346   2.583479   2.125204
     8  N    1.413600   3.585994   3.824129   2.731890   4.522500
     9  H    2.013571   3.974971   4.363192   3.409138   4.817161
    10  H    2.013629   3.975899   4.363382   3.406717   4.818708
                    6          7          8          9         10
     6  H    0.000000
     7  N    3.367484   0.000000
     8  N    4.864652   2.435376   0.000000
     9  H    5.409296   2.747820   1.018690   0.000000
    10  H    5.409490   2.749147   1.018686   1.643673   0.000000
 Stoichiometry    C3H4N2S
 Framework group  C1[X(C3H4N2S)]
 Deg. of freedom    24
 Full point group                 C1      NOp   1
 Largest Abelian subgroup         C1      NOp   1
 Largest concise Abelian subgroup C1      NOp   1
                         Standard orientation:                         
 ---------------------------------------------------------------------
 Center     Atomic      Atomic             Coordinates (Angstroms)
 Number     Number       Type             X           Y           Z
 ---------------------------------------------------------------------
      1          6           0        0.779476    0.198808   -0.000350
      2          6           0       -1.205883    1.173011    0.000496
      3          6           0       -1.646542   -0.122222   -0.001587
      4         16           0       -0.288447   -1.197465    0.000657
      5          1           0       -1.846392    2.047829    0.000846
      6          1           0       -2.666138   -0.484474   -0.002734
      7          7           0        0.159867    1.346818    0.000955
      8          7           0        2.176194   -0.019006   -0.001011
      9          1           0        2.606423    0.404350   -0.821621
     10          1           0        2.606525    0.399463    0.822044
 ---------------------------------------------------------------------
 Rotational constants (GHZ):      5.3473429      3.3191682      2.0708172
 Standard basis: 6-31+G(d) (6D, 7F)
 There are   126 symmetry adapted basis functions of A   symmetry.
 Integral buffers will be    131072 words long.
 Raffenetti 2 integral format.
 Two-electron integral symmetry is turned on.
   126 basis functions,   232 primitive gaussians,   126 cartesian basis functions
    26 alpha electrons       26 beta electrons
       nuclear repulsion energy       277.1923256045 Hartrees.
 NAtoms=   10 NActive=   10 NUniq=   10 SFac= 1.00D+00 NAtFMM=   50 NAOKFM=F Big=F
 One-electron integrals computed using PRISM.
 NBasis=   126 RedAO= T  NBF=   126
 NBsUse=   126 1.00D-06 NBFU=   126
 Initial guess read from the read-write file.
 B after Tr=     0.000000    0.000000    0.000000
         Rot=    1.000000    0.000000    0.000000    0.000000 Ang=   0.00 deg.
 Initial guess orbital symmetries:
       Occupied  (A) (A) (A) (A) (A) (A) (A) (A) (A) (A) (A) (A)
                 (A) (A) (A) (A) (A) (A) (A) (A) (A) (A) (A) (A)
                 (A) (A)
       Virtual   (A) (A) (A) (A) (A) (A) (A) (A) (A) (A) (A) (A)
                 (A) (A) (A) (A) (A) (A) (A) (A) (A) (A) (A) (A)
                 (A) (A) (A) (A) (A) (A) (A) (A) (A) (A) (A) (A)
                 (A) (A) (A) (A) (A) (A) (A) (A) (A) (A) (A) (A)
                 (A) (A) (A) (A) (A) (A) (A) (A) (A) (A) (A) (A)
                 (A) (A) (A) (A) (A) (A) (A) (A) (A) (A) (A) (A)
                 (A) (A) (A) (A) (A) (A) (A) (A) (A) (A) (A) (A)
                 (A) (A) (A) (A) (A) (A) (A) (A) (A) (A) (A) (A)
                 (A) (A) (A) (A)
 Requested convergence on RMS density matrix=1.00D-08 within 128 cycles.
 Requested convergence on MAX density matrix=1.00D-06.
 Requested convergence on             energy=1.00D-06.
 No special actions if energy rises.
 Keep R1 ints in memory in canonical form, NReq=33189382.
 SCF Done:  E(RB3LYP) =  -624.410996846     A.U. after    9 cycles
             Convg  =    0.7597D-08             -V/T =  2.0057
 Calling FoFJK, ICntrl=      2127 FMM=F ISym2X=0 I1Cent= 0 IOpClX= 0 NMat=1 NMatS=1 NMatT=0.
 ***** Axes restored to original set *****
 -------------------------------------------------------------------
 Center     Atomic                   Forces (Hartrees/Bohr)
 Number     Number              X              Y              Z
 -------------------------------------------------------------------
      1        6          -0.000099227    0.000198983   -0.000213472
      2        6          -0.000070948    0.000081234    0.000134451
      3        6           0.000045458   -0.000092603   -0.000229369
      4       16          -0.000000903    0.000036802    0.000264196
      5        1           0.000022192    0.000003965    0.000017048
      6        1          -0.000008255    0.000009759   -0.000034981
      7        7           0.000157180   -0.000190145    0.000094246
      8        7          -0.000088177   -0.000224219   -0.000022557
      9        1           0.000017287    0.000102931    0.000023725
     10        1           0.000025392    0.000073294   -0.000033285
 -------------------------------------------------------------------
 Cartesian Forces:  Max     0.000264196 RMS     0.000116647

 GradGradGradGradGradGradGradGradGradGradGradGradGradGradGradGradGradGrad
 Berny optimization.
 Using GEDIIS/GDIIS optimizer.
 Internal  Forces:  Max     0.000171526 RMS     0.000070422
 Search for a local minimum.
 Step number   5 out of a maximum of   50
 All quantities printed in internal units (Hartrees-Bohrs-Radians)
 Mixed Optimization -- En-DIIS/RFO-DIIS
 Swaping is turned off.
 Update second derivatives using D2CorX and points    1    2    3    4    5
 DE= -2.22D-06 DEPred=-3.56D-06 R= 6.24D-01
 SS=  1.41D+00  RLast= 1.24D-02 DXNew= 5.8820D-01 3.7133D-02
 Trust test= 6.24D-01 RLast= 1.24D-02 DXMaxT set to 3.50D-01
 ITU=  1  1  1  1  0
     Eigenvalues ---    0.00757   0.01454   0.02035   0.02259   0.02344
     Eigenvalues ---    0.02437   0.04429   0.13440   0.16014   0.16052
     Eigenvalues ---    0.16139   0.20333   0.22757   0.25298   0.29261
     Eigenvalues ---    0.31510   0.35528   0.35829   0.37297   0.45848
     Eigenvalues ---    0.47693   0.48403   0.50770   0.64334
 En-DIIS/RFO-DIIS IScMMF=        0 using points:     5    4    3
 RFO step:  Lambda=-7.23468039D-07.
 DidBck=T Rises=F RFO-DIIS coefs:    0.64935    0.52569   -0.17504
 Iteration  1 RMS(Cart)=  0.00151150 RMS(Int)=  0.00000262
 Iteration  2 RMS(Cart)=  0.00000246 RMS(Int)=  0.00000156
 Iteration  3 RMS(Cart)=  0.00000000 RMS(Int)=  0.00000156
 Variable       Old X    -DE/DX   Delta X   Delta X   Delta X     New X
                                  (DIIS)     (GDIIS)  (Total)
    R1        3.32186   0.00000  -0.00022   0.00075   0.00053   3.32239
    R2        2.46524  -0.00017   0.00017  -0.00045  -0.00028   2.46496
    R3        2.67132   0.00003  -0.00044   0.00066   0.00022   2.67153
    R4        2.58541   0.00000   0.00005  -0.00003   0.00003   2.58544
    R5        2.04890  -0.00002   0.00001  -0.00003  -0.00002   2.04888
    R6        2.60171   0.00005  -0.00024   0.00027   0.00004   2.60175
    R7        3.27341  -0.00004   0.00007  -0.00030  -0.00023   3.27319
    R8        2.04475   0.00001  -0.00005   0.00009   0.00004   2.04479
    R9        1.92504  -0.00004   0.00015  -0.00044  -0.00029   1.92476
   R10        1.92504  -0.00002   0.00016  -0.00043  -0.00027   1.92477
    A1        1.99374   0.00007   0.00057  -0.00081  -0.00024   1.99350
    A2        2.06903   0.00007  -0.00047   0.00084   0.00037   2.06939
    A3        2.22042  -0.00014  -0.00010  -0.00002  -0.00013   2.22029
    A4        2.18167   0.00001   0.00018  -0.00027  -0.00009   2.18159
    A5        2.02531  -0.00004   0.00005  -0.00018  -0.00013   2.02518
    A6        2.07620   0.00004  -0.00023   0.00045   0.00021   2.07642
    A7        1.91254   0.00003   0.00023  -0.00014   0.00009   1.91263
    A8        2.24011  -0.00003   0.00008  -0.00038  -0.00030   2.23981
    A9        2.13054   0.00000  -0.00031   0.00052   0.00021   2.13074
   A10        1.55405  -0.00005  -0.00041   0.00043   0.00002   1.55407
   A11        1.93913  -0.00001  -0.00045   0.00071   0.00026   1.93940
   A12        1.93225  -0.00011  -0.00003  -0.00005  -0.00008   1.93217
   A13        1.93234  -0.00006   0.00001   0.00008   0.00008   1.93242
   A14        1.87730   0.00010  -0.00070   0.00175   0.00104   1.87834
    D1        0.00264  -0.00014  -0.00162  -0.00251  -0.00413  -0.00149
    D2       -3.14009  -0.00009  -0.00090  -0.00113  -0.00203   3.14106
    D3       -0.00182   0.00009   0.00111   0.00168   0.00279   0.00097
    D4        3.14102   0.00003   0.00033   0.00015   0.00048   3.14150
    D5        2.10471  -0.00004  -0.00045  -0.00093  -0.00138   2.10333
    D6       -2.09808  -0.00002  -0.00135   0.00127  -0.00007  -2.09815
    D7       -1.03818   0.00003   0.00037   0.00066   0.00102  -1.03716
    D8        1.04222   0.00004  -0.00053   0.00285   0.00233   1.04454
    D9       -3.14035  -0.00008  -0.00077  -0.00121  -0.00198   3.14086
   D10       -0.00052   0.00003   0.00028   0.00042   0.00070   0.00018
   D11        0.00229  -0.00014  -0.00140  -0.00228  -0.00368  -0.00139
   D12       -3.14107  -0.00003  -0.00036  -0.00065  -0.00101   3.14111
   D13       -0.00033   0.00003   0.00021   0.00042   0.00062   0.00029
   D14       -3.14095  -0.00003  -0.00039  -0.00058  -0.00098   3.14126
   D15       -0.00263   0.00015   0.00161   0.00256   0.00417   0.00154
   D16        3.14060   0.00005   0.00064   0.00105   0.00169  -3.14090
         Item               Value     Threshold  Converged?
 Maximum Force            0.000172     0.000450     YES
 RMS     Force            0.000070     0.000300     YES
 Maximum Displacement     0.005926     0.001800     NO 
 RMS     Displacement     0.001511     0.001200     NO 
 Predicted change in Energy=-1.686014D-06
 GradGradGradGradGradGradGradGradGradGradGradGradGradGradGradGradGradGrad

                          Input orientation:                          
 ---------------------------------------------------------------------
 Center     Atomic      Atomic             Coordinates (Angstroms)
 Number     Number       Type             X           Y           Z
 ---------------------------------------------------------------------
      1          6           0       -0.054093   -1.232729    0.000434
      2          6           0       -1.294706    0.598121    0.000590
      3          6           0       -0.073259    1.214498   -0.000754
      4         16           0        1.180295    0.019193    0.000778
      5          1           0       -2.249985    1.110928    0.000707
      6          1           0        0.143482    2.274624   -0.001735
      7          7           0       -1.276866   -0.778548    0.001053
      8          7           0        0.355378   -2.585845    0.000740
      9          1           0       -0.003634   -3.070539    0.821473
     10          1           0        0.001193   -3.069707   -0.822585
 ---------------------------------------------------------------------
                    Distance matrix (angstroms):
                    1          2          3          4          5
     1  C    0.000000
     2  C    2.211590   0.000000
     3  C    2.447302   1.368157   0.000000
     4  S    1.758131   2.541807   1.732095   0.000000
     5  H    3.211646   1.084219   2.179189   3.599820   0.000000
     6  H    3.512914   2.208858   1.082056   2.482328   2.661368
     7  N    1.304398   1.376784   2.328284   2.583415   2.125342
     8  N    1.413715   3.586142   3.824440   2.732529   4.522616
     9  H    2.013504   3.974894   4.363765   3.409058   4.817097
    10  H    2.013679   3.976170   4.362953   3.407273   4.819058
                    6          7          8          9         10
     6  H    0.000000
     7  N    3.367381   0.000000
     8  N    4.865086   2.435271   0.000000
     9  H    5.410183   2.747260   1.018538   0.000000
    10  H    5.408873   2.749768   1.018544   1.644065   0.000000
 Stoichiometry    C3H4N2S
 Framework group  C1[X(C3H4N2S)]
 Deg. of freedom    24
 Full point group                 C1      NOp   1
 Largest Abelian subgroup         C1      NOp   1
 Largest concise Abelian subgroup C1      NOp   1
                         Standard orientation:                         
 ---------------------------------------------------------------------
 Center     Atomic      Atomic             Coordinates (Angstroms)
 Number     Number       Type             X           Y           Z
 ---------------------------------------------------------------------
      1          6           0        0.779653    0.198645    0.000194
      2          6           0       -1.205588    1.173296   -0.000176
      3          6           0       -1.646573   -0.121843    0.000929
      4         16           0       -0.288937   -1.197471   -0.000507
      5          1           0       -1.845950    2.048206   -0.000292
      6          1           0       -2.666385   -0.483545    0.001692
      7          7           0        0.160246    1.346594   -0.000385
      8          7           0        2.176488   -0.019170    0.000098
      9          1           0        2.606835    0.403709   -0.820508
     10          1           0        2.606401    0.398605    0.823549
 ---------------------------------------------------------------------
 Rotational constants (GHZ):      5.3474468      3.3185889      2.0706173
 Standard basis: 6-31+G(d) (6D, 7F)
 There are   126 symmetry adapted basis functions of A   symmetry.
 Integral buffers will be    131072 words long.
 Raffenetti 2 integral format.
 Two-electron integral symmetry is turned on.
   126 basis functions,   232 primitive gaussians,   126 cartesian basis functions
    26 alpha electrons       26 beta electrons
       nuclear repulsion energy       277.1852515440 Hartrees.
 NAtoms=   10 NActive=   10 NUniq=   10 SFac= 1.00D+00 NAtFMM=   50 NAOKFM=F Big=F
 One-electron integrals computed using PRISM.
 NBasis=   126 RedAO= T  NBF=   126
 NBsUse=   126 1.00D-06 NBFU=   126
 Initial guess read from the read-write file.
 B after Tr=     0.000000    0.000000    0.000000
         Rot=    1.000000    0.000000    0.000000    0.000000 Ang=   0.00 deg.
 Initial guess orbital symmetries:
       Occupied  (A) (A) (A) (A) (A) (A) (A) (A) (A) (A) (A) (A)
                 (A) (A) (A) (A) (A) (A) (A) (A) (A) (A) (A) (A)
                 (A) (A)
       Virtual   (A) (A) (A) (A) (A) (A) (A) (A) (A) (A) (A) (A)
                 (A) (A) (A) (A) (A) (A) (A) (A) (A) (A) (A) (A)
                 (A) (A) (A) (A) (A) (A) (A) (A) (A) (A) (A) (A)
                 (A) (A) (A) (A) (A) (A) (A) (A) (A) (A) (A) (A)
                 (A) (A) (A) (A) (A) (A) (A) (A) (A) (A) (A) (A)
                 (A) (A) (A) (A) (A) (A) (A) (A) (A) (A) (A) (A)
                 (A) (A) (A) (A) (A) (A) (A) (A) (A) (A) (A) (A)
                 (A) (A) (A) (A) (A) (A) (A) (A) (A) (A) (A) (A)
                 (A) (A) (A) (A)
 Requested convergence on RMS density matrix=1.00D-08 within 128 cycles.
 Requested convergence on MAX density matrix=1.00D-06.
 Requested convergence on             energy=1.00D-06.
 No special actions if energy rises.
 Keep R1 ints in memory in canonical form, NReq=33189382.
 SCF Done:  E(RB3LYP) =  -624.410997641     A.U. after    9 cycles
             Convg  =    0.3955D-08             -V/T =  2.0057
 Calling FoFJK, ICntrl=      2127 FMM=F ISym2X=0 I1Cent= 0 IOpClX= 0 NMat=1 NMatS=1 NMatT=0.
 ***** Axes restored to original set *****
 -------------------------------------------------------------------
 Center     Atomic                   Forces (Hartrees/Bohr)
[...]
     2   6    -0.09  -0.13   0.00     0.01   0.00   0.00     0.05  -0.07   0.00
     3   6     0.04   0.11   0.00     0.00   0.00   0.00    -0.01   0.00   0.00
     4  16    -0.01   0.00   0.00     0.00   0.00   0.00     0.00   0.00   0.00
     5   1     0.35   0.19   0.00    -0.01  -0.01   0.00    -0.58   0.79   0.00
     6   1     0.08   0.07  -0.01     0.01  -0.01   0.00     0.19   0.07   0.00
     7   7    -0.14   0.23   0.00     0.02  -0.02   0.00     0.00   0.00   0.00
     8   7    -0.05   0.04   0.00     0.11  -0.01   0.02     0.00   0.00   0.00
     9   1    -0.20   0.14  -0.12    -0.51   0.41  -0.26     0.00   0.00   0.00
    10   1    -0.63  -0.22   0.03    -0.54  -0.41  -0.14     0.00   0.00   0.00
                    22                     23                     24
                     A                      A                      A
 Frequencies --  3281.1812              3551.1661              3658.6396
 Red. masses --     1.0982                 1.0477                 1.0996
 Frc consts  --     6.9659                 7.7845                 8.6720
 IR Inten    --     1.3156                37.7069                32.5339
  Atom  AN      X      Y      Z        X      Y      Z        X      Y      Z
     1   6     0.00   0.00   0.00     0.00   0.00   0.00     0.00   0.00   0.00
     2   6    -0.01   0.02   0.00     0.00   0.00   0.00     0.00   0.00   0.00
     3   6    -0.08  -0.03   0.00     0.00   0.00   0.00     0.00   0.00   0.00
     4  16     0.00   0.00   0.00     0.00   0.00   0.00     0.00   0.00   0.00
     5   1     0.11  -0.16   0.00     0.00   0.00   0.00     0.00   0.00   0.00
     6   1     0.91   0.34  -0.02     0.00   0.00   0.00     0.00   0.00   0.00
     7   7     0.00   0.00   0.00     0.00   0.00   0.00     0.00   0.00   0.00
     8   7     0.00   0.00   0.00    -0.05  -0.01  -0.03     0.00   0.08  -0.01
     9   1     0.00   0.00   0.00     0.37   0.65   0.13    -0.32  -0.54  -0.13
    10   1     0.00   0.00   0.00     0.26  -0.53   0.27     0.31  -0.61   0.33

 -------------------
 - Thermochemistry -
 -------------------
 Temperature   298.150 Kelvin.  Pressure   1.00000 Atm.
 Atom     1 has atomic number  6 and mass  12.00000
 Atom     2 has atomic number  6 and mass  12.00000
 Atom     3 has atomic number  6 and mass  12.00000
 Atom     4 has atomic number 16 and mass  31.97207
 Atom     5 has atomic number  1 and mass   1.00783
 Atom     6 has atomic number  1 and mass   1.00783
 Atom     7 has atomic number  7 and mass  14.00307
 Atom     8 has atomic number  7 and mass  14.00307
 Atom     9 has atomic number  1 and mass   1.00783
 Atom    10 has atomic number  1 and mass   1.00783
 Molecular mass:   100.00952 amu.
 Principal axes and moments of inertia in atomic units:
                           1         2         3
     Eigenvalues --   341.33876 534.30393 874.01440
           X            0.99944  -0.03244   0.00806
           Y            0.03246   0.99947  -0.00159
           Z           -0.00801   0.00185   0.99997
 This molecule is an asymmetric top.
 Rotational symmetry number  1.
 Rotational temperatures (Kelvin)      0.25375     0.16211     0.09910
 Rotational constants (GHZ):           5.28724     3.37774     2.06489
 Zero-point vibrational energy     189356.1 (Joules/Mol)
                                   45.25719 (Kcal/Mol)
 Warning -- explicit consideration of   6 degrees of freedom as
           vibrations may cause significant error
 Vibrational temperatures:    359.97   419.96   527.38   734.56   803.84
          (Kelvin)            843.01   927.91   939.15  1001.60  1085.05
                             1260.91  1281.63  1519.26  1585.97  1790.10
                             1876.51  1955.46  2205.43  2276.52  2407.07
                             4653.10  4720.88  5109.33  5263.96
 
 Zero-point correction=                           0.072122 (Hartree/Particle)
 Thermal correction to Energy=                    0.077473
 Thermal correction to Enthalpy=                  0.078417
 Thermal correction to Gibbs Free Energy=         0.043232
 Sum of electronic and zero-point Energies=           -624.346630
 Sum of electronic and thermal Energies=              -624.341278
 Sum of electronic and thermal Enthalpies=            -624.340334
 Sum of electronic and thermal Free Energies=         -624.375519
 
                     E (Thermal)             CV                S
                      KCal/Mol        Cal/Mol-Kelvin    Cal/Mol-Kelvin
 Total                   48.615             20.042             74.053
 Electronic               0.000              0.000              0.000
 Translational            0.889              2.981             39.718
 Rotational               0.889              2.981             26.569
 Vibrational             46.838             14.080              7.766
 Vibration     1          0.663              1.762              1.729
 Vibration     2          0.687              1.689              1.463
 Vibration     3          0.739              1.541              1.094
 Vibration     4          0.866              1.227              0.632
 Vibration     5          0.914              1.121              0.526
 Vibration     6          0.943              1.062              0.475
                       Q            Log10(Q)             Ln(Q)
 Total Bot       0.130176D-19        -19.885471        -45.787988
 Total V=0       0.194197D+14         13.288243         30.597310
 Vib (Bot)       0.231697D-32        -32.635081        -75.145050
 Vib (Bot)    1  0.780021D+00         -0.107894         -0.248434
 Vib (Bot)    2  0.654488D+00         -0.184099         -0.423903
 Vib (Bot)    3  0.497855D+00         -0.302897         -0.697445
 Vib (Bot)    4  0.318890D+00         -0.496359         -1.142908
 Vib (Bot)    5  0.278542D+00         -0.555110         -1.278187
 Vib (Bot)    6  0.258527D+00         -0.587494         -1.352754
 Vib (V=0)       0.345647D+01          0.538633          1.240248
 Vib (V=0)    1  0.142652D+01          0.154277          0.355236
 Vib (V=0)    2  0.132362D+01          0.121764          0.280372
 Vib (V=0)    3  0.120559D+01          0.081200          0.186971
 Vib (V=0)    4  0.109304D+01          0.038634          0.088959
 Vib (V=0)    5  0.107235D+01          0.030337          0.069853
 Vib (V=0)    6  0.106288D+01          0.026485          0.060984
 Electronic      0.100000D+01          0.000000          0.000000
 Translational   0.393113D+08          7.594517         17.487022
 Rotational      0.142920D+06          5.155093         11.870040
 ***** Axes restored to original set *****
 -------------------------------------------------------------------
 Center     Atomic                   Forces (Hartrees/Bohr)
 Number     Number              X              Y              Z
 -------------------------------------------------------------------
      1        6          -0.000096684   -0.000098391   -0.000029724
      2        6           0.000103888   -0.000092524    0.000058099
      3        6          -0.000231532    0.000098608    0.000004816
      4       16           0.000172649   -0.000021946   -0.000010562
      5        1          -0.000010937    0.000014349    0.000007093
      6        1           0.000037855   -0.000018874   -0.000016617
      7        7          -0.000003575    0.000128221   -0.000042857
      8        7           0.000049605   -0.000130728    0.000034615
      9        1           0.000017160    0.000080474   -0.000029254
     10        1          -0.000038430    0.000040811    0.000024389
 -------------------------------------------------------------------
 Cartesian Forces:  Max     0.000231532 RMS     0.000079423

 GradGradGradGradGradGradGradGradGradGradGradGradGradGradGradGradGradGrad
 Berny optimization.
 Internal  Forces:  Max     0.000136390 RMS     0.000041774
 Search for a local minimum.
 Step number   1 out of a maximum of    2
 All quantities printed in internal units (Hartrees-Bohrs-Radians)
 Second derivative matrix not updated -- analytic derivatives used.
 ITU=  0
     Eigenvalues ---    0.00461   0.01316   0.01724   0.02430   0.03170
     Eigenvalues ---    0.03928   0.04833   0.09333   0.11444   0.12856
     Eigenvalues ---    0.13695   0.16023   0.18600   0.22666   0.24813
     Eigenvalues ---    0.29040   0.36936   0.37806   0.41912   0.45174
     Eigenvalues ---    0.46427   0.46723   0.49791   0.58141
 Angle between quadratic step and forces=  56.27 degrees.
 Linear search not attempted -- first point.
 Iteration  1 RMS(Cart)=  0.00054866 RMS(Int)=  0.00000067
 Iteration  2 RMS(Cart)=  0.00000056 RMS(Int)=  0.00000028
 Variable       Old X    -DE/DX   Delta X   Delta X   Delta X     New X
                                 (Linear)    (Quad)   (Total)
    R1        3.34093   0.00008   0.00000   0.00047   0.00047   3.34140
    R2        2.46314   0.00002   0.00000  -0.00004  -0.00004   2.46309
    R3        2.60836   0.00002   0.00000   0.00019   0.00019   2.60855
    R4        2.57282  -0.00007   0.00000  -0.00018  -0.00018   2.57264
    R5        2.04894   0.00002   0.00000   0.00007   0.00007   2.04901
    R6        2.60999  -0.00008   0.00000  -0.00025  -0.00025   2.60974
    R7        3.30861   0.00014   0.00000   0.00069   0.00069   3.30929
    R8        2.04309  -0.00001   0.00000  -0.00003  -0.00003   2.04307
    R9        1.91685  -0.00006   0.00000  -0.00008  -0.00008   1.91677
   R10        1.91308  -0.00006   0.00000  -0.00007  -0.00007   1.91301
    A1        2.00523  -0.00004   0.00000  -0.00013  -0.00013   2.00510
    A2        2.11441   0.00001   0.00000   0.00007   0.00007   2.11448
    A3        2.16131   0.00002   0.00000   0.00004   0.00004   2.16134
    A4        2.17598  -0.00002   0.00000  -0.00013  -0.00013   2.17585
    A5        2.03645   0.00003   0.00000   0.00014   0.00014   2.03659
    A6        2.07071  -0.00001   0.00000  -0.00001  -0.00001   2.07070
    A7        1.91189   0.00000   0.00000  -0.00008  -0.00008   1.91181
    A8        2.25570   0.00004   0.00000   0.00057   0.00057   2.25628
    A9        2.11557  -0.00004   0.00000  -0.00049  -0.00049   2.11508
   A10        1.54098  -0.00004   0.00000  -0.00014  -0.00014   1.54084
   A11        1.93013   0.00005   0.00000   0.00021   0.00021   1.93034
   A12        1.97216  -0.00008   0.00000  -0.00086  -0.00086   1.97130
   A13        2.04143  -0.00002   0.00000  -0.00061  -0.00061   2.04083
   A14        1.97792   0.00004   0.00000  -0.00023  -0.00023   1.97769
    D1       -0.00956  -0.00001   0.00000  -0.00012  -0.00012  -0.00968
    D2       -3.08195   0.00000   0.00000   0.00023   0.00023  -3.08173
    D3        0.00438  -0.00001   0.00000  -0.00019  -0.00019   0.00420
    D4        3.07468  -0.00002   0.00000  -0.00054  -0.00054   3.07414
    D5       -2.94062   0.00003   0.00000   0.00188   0.00188  -2.93875
    D6       -0.59646  -0.00002   0.00000  -0.00011  -0.00011  -0.59656
    D7        0.27654   0.00004   0.00000   0.00226   0.00226   0.27881
    D8        2.62071   0.00000   0.00000   0.00028   0.00028   2.62099
    D9        3.13952  -0.00001   0.00000  -0.00017  -0.00017   3.13935
   D10       -0.00891   0.00001   0.00000   0.00007   0.00007  -0.00884
   D11       -0.01251  -0.00003   0.00000  -0.00061  -0.00061  -0.01311
   D12        3.12224  -0.00002   0.00000  -0.00036  -0.00036   3.12188
   D13        0.00548   0.00003   0.00000   0.00053   0.00053   0.00601
   D14        3.13730   0.00000   0.00000   0.00012   0.00012   3.13741
   D15        0.01172   0.00002   0.00000   0.00039   0.00039   0.01211
   D16       -3.12367   0.00001   0.00000   0.00016   0.00016  -3.12351
         Item               Value     Threshold  Converged?
 Maximum Force            0.000136     0.000450     YES
 RMS     Force            0.000042     0.000300     YES
 Maximum Displacement     0.002336     0.001800     NO 
 RMS     Displacement     0.000549     0.001200     YES
 Predicted change in Energy=-2.625893D-07
 GradGradGradGradGradGradGradGradGradGradGradGradGradGradGradGradGradGrad

 1\1\GINC-LOCALHOST\Freq\RB3LYP\6-31+G(d)\C3H4N2S1\PVBHARATAM\17-Jul-20
 20\0\\#N Geom=AllCheck Guess=TCheck SCRF=Check GenChk RB3LYP/6-31+G(d)
  Freq\\ATZ\\0,1\C,-0.1229448345,-1.2464167305,0.0491340604\C,-1.285852
 4892,0.6255821218,0.1751215091\C,-0.0893937228,1.1973720245,-0.1333664
 684\S,1.1293397985,-0.0484773779,-0.3006529678\H,-2.208014021,1.172889
 2516,0.3353726464\H,0.1531512403,2.2412240142,-0.276369078\N,-1.307594
 1243,-0.7517958344,0.2747458938\N,0.182122304,-2.5885270039,0.15335069
 59\H,-0.6405040822,-3.1817417621,0.1704199285\H,0.9174951513,-2.940114
 2032,-0.4470555998\\Version=EM64L-G09RevB.01\State=1-A\HF=-624.4187515
 \RMSD=3.981e-09\RMSF=7.942e-05\ZeroPoint=0.0721219\Thermal=0.0774731\D
 ipole=0.4042664,-0.2695523,-0.4751412\DipoleDeriv=0.8575753,-0.1971474
 ,-0.1242658,-0.0004709,1.639073,-0.173215,-0.1400189,-0.1399161,0.0839
 943,0.1412749,0.0184441,-0.0427488,0.0167621,0.5079337,-0.0488499,-0.0
 460858,-0.0496445,-0.0394801,0.087881,-0.181105,-0.0804445,-0.2120043,
 -0.1389573,0.0302699,-0.079063,0.0278469,-0.2996206,-0.274599,-0.29818
 92,0.1269768,-0.0218398,-0.1783227,0.0259027,0.0878824,0.0890689,0.090
 605,-0.0276587,0.0978302,0.0343533,0.0329882,0.0401315,0.0014285,0.037
 7274,-0.0127343,0.1549364,0.0785424,0.0208232,0.0271792,-0.0037373,-0.
 0123947,0.0178261,0.0348942,0.0140748,0.1950389,-0.8922645,0.3783102,0
 .0884962,0.0165701,-0.8518511,0.0496283,0.1428951,-0.0723556,-0.273714
 1,-0.330571,0.2927616,-0.127357,0.2018926,-1.4076409,0.1129334,-0.1729
 969,0.4287917,-0.4417007,0.1464881,-0.0108856,0.0190585,0.0188472,0.20
 17708,-0.0298599,0.0115511,-0.1379391,0.3022379,0.2133315,-0.1208421,0
 .078752,-0.0490078,0.2002576,0.0139359,0.1232144,-0.1471926,0.227703\P
 olar=73.0280865,-1.0289615,82.46293,-6.6241051,-2.8784212,44.3510295\P
 G=C01 [X(C3H4N2S1)]\NImag=0\\0.57943033,-0.16752658,0.70340254,-0.0941
 8595,-0.00667123,0.15109311,-0.02145509,0.04165159,0.00107305,0.794487
 01,0.07790305,-0.05418556,-0.01423985,-0.05458104,0.60917877,-0.000001
 55,-0.00371428,0.00376858,-0.14174075,-0.02329643,0.16353781,-0.005532
 65,0.00036416,0.00615046,-0.35700558,-0.10823510,0.07484838,0.54677599
 ,-0.02640141,-0.04140101,0.00855538,-0.12583210,-0.14121762,0.03522722
 ,0.16585046,0.69071751,0.00472975,0.00380042,0.00868619,0.07720100,0.0
 3176984,-0.07332350,-0.11824020,-0.08730088,0.10602257,-0.07181849,-0.
 02016921,0.00675652,-0.06001027,-0.01050156,0.01480576,-0.09584562,0.0
 4490227,0.01118125,0.28396560,-0.04225490,-0.08196714,0.01382887,0.031
 66719,-0.01416356,-0.00633462,0.07325655,-0.10166622,-0.01034551,-0.02
 147940,0.22960210,0.00934720,0.00690501,-0.04269079,0.01276496,0.00358
 041,0.00458532,0.00829425,-0.00349365,-0.02893419,-0.05126240,-0.01027
 041,0.04628001,0.00103357,-0.00168879,0.00034792,-0.27215202,0.1249616
 8,0.04286668,-0.01517393,0.01343505,0.00334973,-0.00201588,-0.00047826
 ,0.00205327,0.28145472,-0.00017462,-0.00640300,0.00061894,0.11890354,-
 0.12203938,-0.01934980,-0.01083082,0.00994792,0.00202770,-0.00340825,0
 .00135000,0.00122369,-0.13388984,0.13594654,0.00021100,0.00078514,0.00
 222937,0.04319515,-0.02058534,-0.04097619,0.00540055,-0.00335875,0.004
 00908,0.00229160,0.00077558,0.00634206,-0.04633841,0.02083853,0.031827
 98,-0.00824427,0.00345457,0.00107785,0.00548417,-0.02350824,0.00054339
 ,-0.06441627,-0.06779458,0.01629804,0.00455239,0.01908395,-0.00296279,
 0.00025544,0.00062997,-0.00094750,0.06224444,0.00152924,-0.00091997,-0
 .00010918,0.00290433,-0.00341171,-0.00046506,-0.06918034,-0.34293918,0
 .04298340,-0.00362260,-0.00852401,0.00122510,-0.00052543,0.00009506,-0
 .00020763,0.07114184,0.35485975,0.00183072,-0.00217309,-0.00128551,-0.
 00201648,0.00495512,-0.00127166,0.01694388,0.04297164,-0.02538033,-0.0
 0124314,-0.00334643,-0.00184710,-0.00083629,-0.00045029,-0.00347384,-0
 .01637908,-0.04459153,0.02391294,-0.36586986,0.10779702,0.06114243,-0.
 08694324,-0.00149371,0.00607396,-0.00230742,-0.00587315,0.00384224,-0.
 06719160,-0.03613992,0.02103716,0.00623662,0.02692360,-0.00367755,-0.0
 0225414,-0.00159982,0.00208548,0.53498185,0.10866457,-0.15609259,-0.01
 542249,-0.01058220,-0.27230903,0.01740608,-0.05850065,-0.06206981,0.01
 763662,0.02297433,-0.00089865,-0.00364102,-0.00172337,-0.01809509,0.00
 147782,-0.00408882,0.00071954,0.00170981,-0.11593251,0.53006731,0.0605
 9654,-0.01840494,-0.07573819,0.00570018,0.01643274,-0.06180633,0.00736
 880,0.00568124,0.00955471,0.01654237,0.00959347,0.01339623,-0.00154765
 ,-0.00450426,-0.00083092,0.00243340,0.00098080,0.00730913,-0.08996873,
 -0.00757490,0.10430343,-0.11427398,0.02516155,0.02058492,-0.00214123,-
 0.00523155,0.00192374,-0.00665724,0.00215105,0.00207142,0.00891042,-0.
 02407633,0.00002736,0.00036454,0.00187723,-0.00019994,0.00248418,-0.00
 082075,-0.00018207,-0.01788975,0.05694629,-0.00151828,0.69294618,0.052
 06778,-0.32735780,0.03528299,-0.00578502,-0.00085788,-0.00047699,0.007
 20078,-0.01057487,-0.00087632,-0.01023584,-0.02038979,0.00505999,-0.00
 000204,-0.00049474,0.00007335,0.00075242,0.00002711,0.00075350,0.02888
 718,-0.02102909,-0.00207041,0.03225861,0.67875273,0.02849455,-0.001862
 94,-0.04326221,0.00543686,0.00064390,0.00472010,-0.00302148,0.00339594
 ,-0.00042880,0.00370689,0.00584993,0.00096974,0.00011848,-0.00045358,0
 .00084492,-0.00000675,-0.00003364,0.00138039,-0.00331503,-0.01243634,0
 .00538580,-0.23812566,0.08858729,0.20639287,0.01197305,0.00524831,-0.0
 0204868,0.00015827,0.00033505,0.00034935,-0.00054907,0.00115685,0.0002
 6091,0.00031771,0.00146399,-0.00031430,-0.00002764,0.00001151,-0.00006
 135,-0.00011099,0.00015732,0.00017829,-0.00051171,0.00051031,-0.000923
 93,-0.31617633,-0.18420025,0.02814095,0.32021524,-0.03381541,-0.027145
 17,0.00089281,0.00044772,-0.00109527,0.00041163,-0.00096558,-0.0002402
 1,0.00022027,0.00264712,-0.00277121,-0.00055012,0.00002458,0.00020101,
 0.00001174,0.00060449,-0.00004778,-0.00003738,-0.00128652,0.00530661,0
 .00041981,-0.17311980,-0.18793393,-0.00399956,0.19123700,0.20206659,0.
 00087158,0.01218039,-0.00106812,-0.00062626,-0.00035285,-0.00197912,0.
 00113807,-0.00046608,0.00062637,-0.00146423,0.00028786,0.00044677,-0.0
 0001234,-0.00008778,-0.00006116,0.00020148,0.00011423,0.00111171,0.001
 77144,-0.00122341,-0.00126981,0.00115269,-0.02866168,-0.01376253,-0.01
 986081,0.00184976,0.01761550,-0.00524261,0.00570738,-0.00089852,-0.000
 42201,0.00035142,0.00033104,0.00071178,-0.00159444,-0.00069413,-0.0008
 6426,-0.00104288,0.00101530,0.00002458,-0.00004231,0.00012644,0.000005
 06,0.00001622,-0.00038130,0.00174925,0.00173206,0.00131731,-0.24756680
 ,0.07905638,0.17857118,-0.01528853,0.01422639,0.01682837,0.26689354,0.
 03000827,-0.00793032,-0.02273624,0.00120600,0.00010124,0.00059224,0.00
 104055,-0.00055652,0.00008444,-0.00110687,-0.00057153,-0.00003900,-0.0
 0011357,-0.00050832,0.00018955,-0.00027559,0.00014118,0.00020864,-0.00
 128218,-0.00559920,-0.00055354,0.08485370,-0.11014174,-0.07969100,-0.0
 1592009,0.01165937,0.01635957,-0.09841022,0.11340585,-0.01189384,0.009
 15551,-0.00173243,-0.00098771,0.00109247,0.00274498,0.00111729,-0.0012
 1206,-0.00083210,-0.00131463,-0.00003875,0.00145195,-0.00000139,0.0001
 3684,0.00008871,-0.00025803,0.00010350,-0.00045573,0.00100861,0.002067
 82,-0.00030406,0.21426581,-0.09767172,-0.16224029,-0.00572043,0.000781
 04,-0.00165961,-0.19621569,0.08558535,0.16293857\\0.00009668,0.0000983
 9,0.00002972,-0.00010389,0.00009252,-0.00005810,0.00023153,-0.00009861
 ,-0.00000482,-0.00017265,0.00002195,0.00001056,0.00001094,-0.00001435,
 -0.00000709,-0.00003785,0.00001887,0.00001662,0.00000357,-0.00012822,0
 .00004286,-0.00004960,0.00013073,-0.00003461,-0.00001716,-0.00008047,0
 .00002925,0.00003843,-0.00004081,-0.00002439\\\@


 SACRED COWS MAKE GREAT HAMBURGERS -- ROBERT REISNER
 Job cpu time:  0 days  0 hours  4 minutes 27.7 seconds.
 File lengths (MBytes):  RWF=     24 Int=      0 D2E=      0 Chk=      2 Scr=      1
 Normal termination of Gaussian 09 at Fri Jul 17 10:06:35 2020.
