 Entering Gaussian System, Link 0=g09
 Input=ATZ+1.gjf
 Output=ATZ+1.log
 Initial command:
 /home/pvbharatam/guass/g09/l1.exe /home/pvbharatam/GAUSS_SCRDIR/Gau-459.inp -scrdir=/home/pvbharatam/GAUSS_SCRDIR/
 Entering Link 1 = /home/pvbharatam/guass/g09/l1.exe PID=       460.
  
 Copyright (c) 1988,1990,1992,1993,1995,1998,2003,2009,2010,
            Gaussian, Inc.  All Rights Reserved.
  
 This is part of the Gaussian(R) 09 program.  It is based on
 the Gaussian(R) 03 system (copyright 2003, Gaussian, Inc.),
 the Gaussian(R) 98 system (copyright 1998, Gaussian, Inc.),
 the Gaussian(R) 94 system (copyright 1995, Gaussian, Inc.),
 the Gaussian 92(TM) system (copyright 1992, Gaussian, Inc.),
 the Gaussian 90(TM) system (copyright 1990, Gaussian, Inc.),
 the Gaussian 88(TM) system (copyright 1988, Gaussian, Inc.),
 the Gaussian 86(TM) system (copyright 1986, Carnegie Mellon
 University), and the Gaussian 82(TM) system (copyright 1983,
 Carnegie Mellon University). Gaussian is a federally registered
 trademark of Gaussian, Inc.
  
 This software contains proprietary and confidential information,
 including trade secrets, belonging to Gaussian, Inc.
  
 This software is provided under written license and may be
 used, copied, transmitted, or stored only in accord with that
 written license.
  
 The following legend is applicable only to US Government
 contracts under FAR:
  
                    RESTRICTED RIGHTS LEGEND
  
 Use, reproduction and disclosure by the US Government is
 subject to restrictions as set forth in subparagraphs (a)
 and (c) of the Commercial Computer Software - Restricted
 Rights clause in FAR 52.227-19.
  
 Gaussian, Inc.
 340 Quinnipiac St., Bldg. 40, Wallingford CT 06492
  
  
 ---------------------------------------------------------------
 Warning -- This program may not be used in any manner that
 competes with the business of Gaussian, Inc. or will provide
 assistance to any competitor of Gaussian, Inc.  The licensee
 of this program is prohibited from giving any competitor of
 Gaussian, Inc. access to this program.  By using this program,
 the user acknowledges that Gaussian, Inc. is engaged in the
 business of creating and licensing software in the field of
 computational chemistry and represents and warrants to the
 licensee that it is not a competitor of Gaussian, Inc. and that
 it will not use this program in any manner prohibited above.
 ---------------------------------------------------------------
  

 Cite this work as:
 Gaussian 09, Revision B.01,
 M. J. Frisch, G. W. Trucks, H. B. Schlegel, G. E. Scuseria, 
 M. A. Robb, J. R. Cheeseman, G. Scalmani, V. Barone, B. Mennucci, 
 G. A. Petersson, H. Nakatsuji, M. Caricato, X. Li, H. P. Hratchian, 
 A. F. Izmaylov, J. Bloino, G. Zheng, J. L. Sonnenberg, M. Hada, 
 M. Ehara, K. Toyota, R. Fukuda, J. Hasegawa, M. Ishida, T. Nakajima, 
 Y. Honda, O. Kitao, H. Nakai, T. Vreven, J. A. Montgomery, Jr., 
 J. E. Peralta, F. Ogliaro, M. Bearpark, J. J. Heyd, E. Brothers, 
 K. N. Kudin, V. N. Staroverov, T. Keith, R. Kobayashi, J. Normand, 
 K. Raghavachari, A. Rendell, J. C. Burant, S. S. Iyengar, J. Tomasi, 
 M. Cossi, N. Rega, J. M. Millam, M. Klene, J. E. Knox, J. B. Cross, 
 V. Bakken, C. Adamo, J. Jaramillo, R. Gomperts, R. E. Stratmann, 
 O. Yazyev, A. J. Austin, R. Cammi, C. Pomelli, J. W. Ochterski, 
 R. L. Martin, K. Morokuma, V. G. Zakrzewski, G. A. Voth, 
 P. Salvador, J. J. Dannenberg, S. Dapprich, A. D. Daniels, 
 O. Farkas, J. B. Foresman, J. V. Ortiz, J. Cioslowski, 
 and D. J. Fox, Gaussian, Inc., Wallingford CT, 2010.
 
 ******************************************
 Gaussian 09:  EM64L-G09RevB.01 12-Aug-2010
                14-Mar-2001 
 ******************************************
 %nprocshared=4
 Will use up to    4 processors via shared memory.
 %mem=4GB
 %chk=ATZ+1.chk
 -------------------------
 # b3lyp/6-31+g(d) pop=nbo
 -------------------------
 1/38=1/1;
 2/12=2,17=6,18=5,40=1/2;
 3/5=1,6=6,7=11,11=2,16=1,25=1,30=1,74=-5/1,2,3;
 4//1;
 5/5=2,38=5/2;
 6/7=2,8=2,9=2,10=2,28=1/1,7;
 99/5=1,9=1/99;
 -----
 ATZ+1
 -----
 Symbolic Z-matrix:
 Charge =  1 Multiplicity = 2
 C                     0.77981   0.21157   0.00178 
 C                    -1.21131   1.16461   0.00333 
 C                    -1.6481   -0.12476   0.00857 
 S                    -0.273    -1.20905  -0.00685 
 H                    -1.85804   2.03491   0.00863 
 H                    -2.66025  -0.50439   0.02587 
 N                     0.15632   1.35622   0.00375 
 N                     2.15202   0.08388  -0.07611 
 H                     2.64164   0.94899   0.12536 
 H                     2.56369  -0.72388   0.37418 
 
                          Input orientation:                          
 ---------------------------------------------------------------------
 Center     Atomic      Atomic             Coordinates (Angstroms)
 Number     Number       Type             X           Y           Z
 ---------------------------------------------------------------------
      1          6           0        0.779813    0.211567    0.001781
      2          6           0       -1.211308    1.164614    0.003329
      3          6           0       -1.648098   -0.124763    0.008569
      4         16           0       -0.272995   -1.209050   -0.006852
      5          1           0       -1.858035    2.034910    0.008629
      6          1           0       -2.660250   -0.504390    0.025868
      7          7           0        0.156324    1.356215    0.003751
      8          7           0        2.152024    0.083879   -0.076106
      9          1           0        2.641637    0.948989    0.125364
     10          1           0        2.563692   -0.723881    0.374182
 ---------------------------------------------------------------------
                    Distance matrix (angstroms):
                    1          2          3          4          5
     1  C    0.000000
     2  C    2.207456   0.000000
     3  C    2.451105   1.361362   0.000000
     4  S    1.768228   2.552414   1.751235   0.000000
     5  H    3.206691   1.084297   2.169853   3.610522   0.000000
     6  H    3.513859   2.210320   1.081142   2.489298   2.663060
     7  N    1.303442   1.380988   2.334365   2.600964   2.125628
     8  N    1.380338   3.533596   3.806787   2.749032   4.460300
     9  H    2.006353   3.860903   4.423620   3.629007   4.630324
    10  H    2.048407   4.237283   4.269870   2.902993   5.224579
                    6          7          8          9         10
     6  H    0.000000
     7  N    3.375712   0.000000
     8  N    4.849169   2.368129   0.000000
     9  H    5.498383   2.521389   1.014261   0.000000
    10  H    5.240140   3.203036   1.012278   1.693068   0.000000
 Stoichiometry    C3H4N2S(1+,2)
 Framework group  C1[X(C3H4N2S)]
 Deg. of freedom    24
 Full point group                 C1      NOp   1
 Largest Abelian subgroup         C1      NOp   1
 Largest concise Abelian subgroup C1      NOp   1
                         Standard orientation:                         
 ---------------------------------------------------------------------
 Center     Atomic      Atomic             Coordinates (Angstroms)
 Number     Number       Type             X           Y           Z
 ---------------------------------------------------------------------
      1          6           0        0.779813    0.211567    0.001781
      2          6           0       -1.211308    1.164614    0.003329
      3          6           0       -1.648098   -0.124763    0.008569
      4         16           0       -0.272995   -1.209050   -0.006852
      5          1           0       -1.858035    2.034910    0.008629
      6          1           0       -2.660250   -0.504390    0.025868
      7          7           0        0.156324    1.356215    0.003751
      8          7           0        2.152024    0.083879   -0.076106
      9          1           0        2.641637    0.948989    0.125364
     10          1           0        2.563692   -0.723881    0.374182
 ---------------------------------------------------------------------
 Rotational constants (GHZ):      5.2864162      3.3774164      2.0646501
 Standard basis: 6-31+G(d) (6D, 7F)
 There are   126 symmetry adapted basis functions of A   symmetry.
 Integral buffers will be    131072 words long.
 Raffenetti 2 integral format.
 Two-electron integral symmetry is turned on.
   126 basis functions,   232 primitive gaussians,   126 cartesian basis functions
    26 alpha electrons       25 beta electrons
       nuclear repulsion energy       277.3446279349 Hartrees.
 NAtoms=   10 NActive=   10 NUniq=   10 SFac= 1.00D+00 NAtFMM=   50 NAOKFM=F Big=F
 One-electron integrals computed using PRISM.
 NBasis=   126 RedAO= T  NBF=   126
 NBsUse=   126 1.00D-06 NBFU=   126
 Harris functional with IExCor=  402 diagonalized for initial guess.
 ExpMin= 4.05D-02 ExpMax= 2.19D+04 ExpMxC= 3.30D+03 IAcc=2 IRadAn=         0 AccDes= 0.00D+00
 HarFok:  IExCor=  402 AccDes= 0.00D+00 IRadAn=         0 IDoV= 1
 ScaDFX=  1.000000  1.000000  1.000000  1.000000
 FoFCou: FMM=F IPFlag=           0 FMFlag=      100000 FMFlg1=           0
         NFxFlg=           0 DoJE=T BraDBF=F KetDBF=T FulRan=T
         Omega=  0.000000  0.000000  1.000000  0.000000  0.000000 ICntrl=     500 IOpCl=  0
         NMat0=    1 NMatS0=    1 NMatT0=    0 NMatD0=    1 NMtDS0=    0 NMtDT0=    0
         I1Cent=           4 NGrid=           0.
 Petite list used in FoFCou.
 Initial guess orbital symmetries:
 Alpha Orbitals:
       Occupied  (A) (A) (A) (A) (A) (A) (A) (A) (A) (A) (A) (A)
                 (A) (A) (A) (A) (A) (A) (A) (A) (A) (A) (A) (A)
                 (A) (A)
       Virtual   (A) (A) (A) (A) (A) (A) (A) (A) (A) (A) (A) (A)
                 (A) (A) (A) (A) (A) (A) (A) (A) (A) (A) (A) (A)
                 (A) (A) (A) (A) (A) (A) (A) (A) (A) (A) (A) (A)
                 (A) (A) (A) (A) (A) (A) (A) (A) (A) (A) (A) (A)
                 (A) (A) (A) (A) (A) (A) (A) (A) (A) (A) (A) (A)
                 (A) (A) (A) (A) (A) (A) (A) (A) (A) (A) (A) (A)
                 (A) (A) (A) (A) (A) (A) (A) (A) (A) (A) (A) (A)
                 (A) (A) (A) (A) (A) (A) (A) (A) (A) (A) (A) (A)
                 (A) (A) (A) (A)
 Beta  Orbitals:
       Occupied  (A) (A) (A) (A) (A) (A) (A) (A) (A) (A) (A) (A)
                 (A) (A) (A) (A) (A) (A) (A) (A) (A) (A) (A) (A)
                 (A)
       Virtual   (A) (A) (A) (A) (A) (A) (A) (A) (A) (A) (A) (A)
                 (A) (A) (A) (A) (A) (A) (A) (A) (A) (A) (A) (A)
                 (A) (A) (A) (A) (A) (A) (A) (A) (A) (A) (A) (A)
                 (A) (A) (A) (A) (A) (A) (A) (A) (A) (A) (A) (A)
                 (A) (A) (A) (A) (A) (A) (A) (A) (A) (A) (A) (A)
                 (A) (A) (A) (A) (A) (A) (A) (A) (A) (A) (A) (A)
                 (A) (A) (A) (A) (A) (A) (A) (A) (A) (A) (A) (A)
                 (A) (A) (A) (A) (A) (A) (A) (A) (A) (A) (A) (A)
                 (A) (A) (A) (A) (A)
 The electronic state of the initial guess is 2-A.
 Initial guess <Sx>= 0.0000 <Sy>= 0.0000 <Sz>= 0.5000 <S**2>= 0.7500 S= 0.5000
 Requested convergence on RMS density matrix=1.00D-08 within 128 cycles.
 Requested convergence on MAX density matrix=1.00D-06.
 Requested convergence on             energy=1.00D-06.
 No special actions if energy rises.
 Keep R1 and R2 ints in memory in canonical form, NReq=65201138.
 SCF Done:  E(UB3LYP) =  -624.117141688     A.U. after   18 cycles
             Convg  =    0.8191D-08             -V/T =  2.0056
 <Sx>= 0.0000 <Sy>= 0.0000 <Sz>= 0.5000 <S**2>= 0.7578 S= 0.5039
 <L.S>= 0.000000000000E+00
 Annihilation of the first spin contaminant:
 S**2 before annihilation     0.7578,   after     0.7500

 **********************************************************************

            Population analysis using the SCF density.

 **********************************************************************

 Orbital symmetries:
 Alpha Orbitals:
       Occupied  (A) (A) (A) (A) (A) (A) (A) (A) (A) (A) (A) (A)
                 (A) (A) (A) (A) (A) (A) (A) (A) (A) (A) (A) (A)
                 (A) (A)
       Virtual   (A) (A) (A) (A) (A) (A) (A) (A) (A) (A) (A) (A)
                 (A) (A) (A) (A) (A) (A) (A) (A) (A) (A) (A) (A)
                 (A) (A) (A) (A) (A) (A) (A) (A) (A) (A) (A) (A)
                 (A) (A) (A) (A) (A) (A) (A) (A) (A) (A) (A) (A)
                 (A) (A) (A) (A) (A) (A) (A) (A) (A) (A) (A) (A)
                 (A) (A) (A) (A) (A) (A) (A) (A) (A) (A) (A) (A)
                 (A) (A) (A) (A) (A) (A) (A) (A) (A) (A) (A) (A)
                 (A) (A) (A) (A) (A) (A) (A) (A) (A) (A) (A) (A)
                 (A) (A) (A) (A)
 Beta  Orbitals:
       Occupied  (A) (A) (A) (A) (A) (A) (A) (A) (A) (A) (A) (A)
                 (A) (A) (A) (A) (A) (A) (A) (A) (A) (A) (A) (A)
                 (A)
       Virtual   (A) (A) (A) (A) (A) (A) (A) (A) (A) (A) (A) (A)
                 (A) (A) (A) (A) (A) (A) (A) (A) (A) (A) (A) (A)
                 (A) (A) (A) (A) (A) (A) (A) (A) (A) (A) (A) (A)
                 (A) (A) (A) (A) (A) (A) (A) (A) (A) (A) (A) (A)
                 (A) (A) (A) (A) (A) (A) (A) (A) (A) (A) (A) (A)
                 (A) (A) (A) (A) (A) (A) (A) (A) (A) (A) (A) (A)
                 (A) (A) (A) (A) (A) (A) (A) (A) (A) (A) (A) (A)
                 (A) (A) (A) (A) (A) (A) (A) (A) (A) (A) (A) (A)
                 (A) (A) (A) (A) (A)
 The electronic state is 2-A.
 Alpha  occ. eigenvalues --  -89.14628 -14.62127 -14.56704 -10.53079 -10.47089
 Alpha  occ. eigenvalues --  -10.46408  -8.20566  -6.16963  -6.16582  -6.16325
 Alpha  occ. eigenvalues --   -1.22252  -1.14889  -1.03291  -0.96639  -0.83489
 Alpha  occ. eigenvalues --   -0.81271  -0.75105  -0.73403  -0.68438  -0.66033
 Alpha  occ. eigenvalues --   -0.63714  -0.58851  -0.57542  -0.50791  -0.50193
 Alpha  occ. eigenvalues --   -0.46498
 Alpha virt. eigenvalues --   -0.24839  -0.20826  -0.17968  -0.16423  -0.13434
 Alpha virt. eigenvalues --   -0.11786  -0.10333  -0.10050  -0.08997  -0.08390
 Alpha virt. eigenvalues --   -0.05915  -0.05609  -0.05455  -0.04566  -0.03009
 Alpha virt. eigenvalues --   -0.01936  -0.01240   0.00067   0.00659   0.01685
 Alpha virt. eigenvalues --    0.02159   0.03177   0.03724   0.05130   0.06418
 Alpha virt. eigenvalues --    0.06488   0.08391   0.08994   0.10878   0.11658
 Alpha virt. eigenvalues --    0.13342   0.14693   0.15053   0.16031   0.19008
 Alpha virt. eigenvalues --    0.26616   0.29330   0.31417   0.31673   0.36487
 Alpha virt. eigenvalues --    0.38759   0.40594   0.42578   0.47253   0.50459
 Alpha virt. eigenvalues --    0.59943   0.61343   0.61571   0.62182   0.67291
 Alpha virt. eigenvalues --    0.69925   0.70981   0.71916   0.73341   0.75906
 Alpha virt. eigenvalues --    0.78837   0.79752   0.81704   0.84324   0.86748
 Alpha virt. eigenvalues --    0.87313   0.88864   0.92602   0.96564   0.99122
 Alpha virt. eigenvalues --    1.01770   1.09321   1.15098   1.18592   1.22461
 Alpha virt. eigenvalues --    1.31824   1.33593   1.40346   1.53025   1.54957
 Alpha virt. eigenvalues --    1.60256   1.63268   1.75742   1.82404   1.83960
 Alpha virt. eigenvalues --    1.96344   1.99247   2.01394   2.07611   2.08132
 Alpha virt. eigenvalues --    2.17828   2.22607   2.28253   2.33961   2.43354
 Alpha virt. eigenvalues --    2.49118   2.60457   2.75755   2.84994   3.71243
 Alpha virt. eigenvalues --    3.74481   3.94211   3.98978   4.15227   4.18349
  Beta  occ. eigenvalues --  -89.14589 -14.61465 -14.56521 -10.52932 -10.46544
  Beta  occ. eigenvalues --  -10.46215  -8.20528  -6.16953  -6.16575  -6.16169
  Beta  occ. eigenvalues --   -1.21429  -1.13760  -1.02498  -0.95445  -0.82814
  Beta  occ. eigenvalues --   -0.80780  -0.74628  -0.72939  -0.67893  -0.63996
  Beta  occ. eigenvalues --   -0.63367  -0.58507  -0.53276  -0.49910  -0.49461
  Beta virt. eigenvalues --   -0.38275  -0.22281  -0.20487  -0.16185  -0.15798
  Beta virt. eigenvalues --   -0.13248  -0.11565  -0.10240  -0.09887  -0.08800
  Beta virt. eigenvalues --   -0.08229  -0.05749  -0.05319  -0.05233  -0.04470
  Beta virt. eigenvalues --   -0.02914  -0.01765  -0.01098   0.00305   0.00890
  Beta virt. eigenvalues --    0.01925   0.02324   0.03453   0.03850   0.05294
  Beta virt. eigenvalues --    0.06581   0.06687   0.08618   0.09331   0.11079
  Beta virt. eigenvalues --    0.11828   0.13703   0.14868   0.15145   0.16181
  Beta virt. eigenvalues --    0.19365   0.27090   0.29497   0.31725   0.31977
  Beta virt. eigenvalues --    0.36620   0.39422   0.40931   0.44497   0.47575
  Beta virt. eigenvalues --    0.51390   0.61075   0.61611   0.62271   0.62654
  Beta virt. eigenvalues --    0.67608   0.70513   0.72186   0.72403   0.73794
  Beta virt. eigenvalues --    0.76258   0.79160   0.80257   0.82486   0.84685
  Beta virt. eigenvalues --    0.87012   0.87693   0.89272   0.93077   0.96980
  Beta virt. eigenvalues --    0.99665   1.02283   1.10479   1.15736   1.19366
  Beta virt. eigenvalues --    1.24063   1.32755   1.34207   1.41563   1.53939
  Beta virt. eigenvalues --    1.56918   1.60906   1.64525   1.76027   1.82900
  Beta virt. eigenvalues --    1.85138   1.97696   2.00889   2.02907   2.08647
  Beta virt. eigenvalues --    2.09352   2.18555   2.23875   2.29173   2.34768
  Beta virt. eigenvalues --    2.44063   2.49695   2.61199   2.75965   2.85231
  Beta virt. eigenvalues --    3.71562   3.75551   3.94782   3.99830   4.16049
  Beta virt. eigenvalues --    4.18854
          Condensed to atoms (all electrons):
              1          2          3          4          5          6
     1  C    5.839619   0.184345  -0.171790  -0.224550   0.033450   0.002077
     2  C    0.184345   5.115019   0.319305  -0.146329   0.379501   0.003935
     3  C   -0.171790   0.319305   5.380792   0.319755  -0.050569   0.315691
     4  S   -0.224550  -0.146329   0.319755  15.639802  -0.008153  -0.007304
     5  H    0.033450   0.379501  -0.050569  -0.008153   0.430587  -0.000764
     6  H    0.002077   0.003935   0.315691  -0.007304  -0.000764   0.375408
     7  N    0.024543   0.272542   0.031580   0.059716  -0.059815   0.005139
     8  N    0.330821   0.035755  -0.030205  -0.124127  -0.000150   0.000125
     9  H   -0.021432   0.002530  -0.002213   0.013274  -0.000009   0.000001
    10  H    0.001478   0.000437   0.003456  -0.006346   0.000001  -0.000001
              7          8          9         10
     1  C    0.024543   0.330821  -0.021432   0.001478
     2  C    0.272542   0.035755   0.002530   0.000437
     3  C    0.031580  -0.030205  -0.002213   0.003456
     4  S    0.059716  -0.124127   0.013274  -0.006346
     5  H   -0.059815  -0.000150  -0.000009   0.000001
     6  H    0.005139   0.000125   0.000001  -0.000001
     7  N    6.977015  -0.201310   0.007444   0.012219
     8  N   -0.201310   6.984905   0.279922   0.270026
     9  H    0.007444   0.279922   0.282981  -0.018855
    10  H    0.012219   0.270026  -0.018855   0.303574
 Mulliken atomic charges:
              1
     1  C    0.001436
     2  C   -0.167041
     3  C   -0.115802
     4  S    0.484261
     5  H    0.275921
     6  H    0.305692
     7  N   -0.129073
     8  N   -0.545761
     9  H    0.456355
    10  H    0.434011
 Sum of Mulliken atomic charges =   1.00000
 Mulliken charges with hydrogens summed into heavy atoms:
              1
     1  C    0.001436
     2  C    0.108880
     3  C    0.189890
     4  S    0.484261
     7  N   -0.129073
     8  N    0.344605
 Sum of Mulliken charges with hydrogens summed into heavy atoms =   1.00000
          Atomic-Atomic Spin Densities.
              1          2          3          4          5          6
     1  C    0.168780  -0.015755  -0.013390   0.019789  -0.000765   0.000913
     2  C   -0.015755   0.130150   0.047706  -0.007477   0.000559  -0.003275
     3  C   -0.013390   0.047706   0.428505  -0.071884  -0.001046   0.001541
     4  S    0.019789  -0.007477  -0.071884   0.111685   0.000359  -0.002638
     5  H   -0.000765   0.000559  -0.001046   0.000359  -0.007766   0.000065
     6  H    0.000913  -0.003275   0.001541  -0.002638   0.000065  -0.015044
     7  N    0.046037  -0.045819  -0.004871   0.003370   0.000860  -0.000321
     8  N   -0.100236   0.005434   0.000589  -0.004607   0.000036   0.000018
     9  H   -0.001176   0.000053  -0.000105   0.000376   0.000000   0.000000
    10  H   -0.003992   0.000117  -0.000373   0.001452   0.000000   0.000000
              7          8          9         10
     1  C    0.046037  -0.100236  -0.001176  -0.003992
     2  C   -0.045819   0.005434   0.000053   0.000117
     3  C   -0.004871   0.000589  -0.000105  -0.000373
     4  S    0.003370  -0.004607   0.000376   0.001452
     5  H    0.000860   0.000036   0.000000   0.000000
     6  H   -0.000321   0.000018   0.000000   0.000000
     7  N    0.098146  -0.011458  -0.000431  -0.000931
     8  N   -0.011458   0.419539  -0.001600   0.001698
     9  H   -0.000431  -0.001600  -0.007330   0.000300
    10  H   -0.000931   0.001698   0.000300  -0.004912
 Mulliken atomic spin densities:
              1
     1  C    0.100205
     2  C    0.111693
     3  C    0.386673
     4  S    0.050427
     5  H   -0.007698
     6  H   -0.018740
     7  N    0.084581
     8  N    0.309413
     9  H   -0.009913
    10  H   -0.006641
 Sum of Mulliken atomic spin densities =   1.00000
 Electronic spatial extent (au):  <R**2>=            557.9741
 Charge=              1.0000 electrons
 Dipole moment (field-independent basis, Debye):
    X=              0.6266    Y=             -0.6742    Z=              0.9148  Tot=              1.2977
 Quadrupole moment (field-independent basis, Debye-Ang):
   XX=            -14.2374   YY=            -35.1005   ZZ=            -40.9895
   XY=             -1.8937   XZ=              2.6048   YZ=             -0.3462
 Traceless Quadrupole moment (field-independent basis, Debye-Ang):
   XX=             15.8717   YY=             -4.9914   ZZ=            -10.8804
   XY=             -1.8937   XZ=              2.6048   YZ=             -0.3462
 Octapole moment (field-independent basis, Debye-Ang**2):
  XXX=             20.8376  YYY=             -3.0492  ZZZ=              0.5712  XYY=             -2.7197
  XXY=              3.7334  XXZ=              7.6002  XZZ=              1.8069  YZZ=             -0.6424
  YYZ=              0.6717  XYZ=             -0.9250
 Hexadecapole moment (field-independent basis, Debye-Ang**3):
 XXXX=           -238.2822 YYYY=           -259.4356 ZZZZ=            -44.6554 XXXY=              8.8492
 XXXZ=             20.2093 YYYX=            -15.1884 YYYZ=             -0.1454 ZZZX=              2.1459
 ZZZY=             -0.3166 XXYY=            -77.7785 XXZZ=            -79.3107 YYZZ=            -54.1178
 XXYZ=             -2.4376 YYXZ=              2.1729 ZZXY=             -0.4770
 N-N= 2.773446279349D+02 E-N=-3.012582460211D+03  KE= 9.300677798793D+02
                          Isotropic Fermi Contact Couplings
        Atom                 a.u.       MegaHertz       Gauss      10(-4) cm-1
     1  C(13)              0.00355       3.99037       1.42386       1.33104
     2  C(13)              0.00541       6.08052       2.16968       2.02824
     3  C(13)              0.03459      38.88338      13.87456      12.97010
     4  S(33)              0.00918       3.15348       1.12524       1.05189
     5  H(1)              -0.00278     -12.44720      -4.44147      -4.15194
     6  H(1)              -0.00622     -27.81801      -9.92616      -9.27909
     7  N(14)              0.01264       4.08254       1.45675       1.36179
     8  N(14)              0.09822      31.73427      11.32358      10.58541
     9  H(1)              -0.00288     -12.87558      -4.59433      -4.29483
    10  H(1)              -0.00029      -1.28254      -0.45764      -0.42781
 --------------------------------------------------------
       Center         ----  Spin Dipole Couplings  ----
                      3XX-RR        3YY-RR        3ZZ-RR
 --------------------------------------------------------
     1   Atom       -0.052809     -0.070787      0.123597
     2   Atom       -0.089482     -0.077979      0.167461
     3   Atom       -0.217278     -0.212870      0.430149
     4   Atom       -0.205742     -0.201360      0.407102
     5   Atom       -0.007995      0.014741     -0.006746
     6   Atom        0.023325     -0.016743     -0.006583
     7   Atom       -0.106275     -0.112490      0.218765
     8   Atom       -0.318839     -0.327908      0.646747
     9   Atom       -0.010091      0.021348     -0.011257
    10   Atom       -0.015227      0.021024     -0.005797
 --------------------------------------------------------
                        XY            XZ            YZ
 --------------------------------------------------------
     1   Atom       -0.005323     -0.031965      0.002299
     2   Atom        0.005732      0.013818      0.001322
     3   Atom        0.002556      0.004337      0.001710
     4   Atom        0.013644     -0.023687     -0.019274
     5   Atom       -0.012409      0.000198      0.000405
     6   Atom        0.023771     -0.000264     -0.000093
     7   Atom       -0.001682      0.021207     -0.000230
     8   Atom       -0.020022     -0.153291      0.135726
     9   Atom        0.029625      0.001920      0.009644
    10   Atom       -0.026877      0.008203     -0.016479
 --------------------------------------------------------


 ---------------------------------------------------------------------------------
              Anisotropic Spin Dipole Couplings in Principal Axis System
 ---------------------------------------------------------------------------------

       Atom             a.u.   MegaHertz   Gauss  10(-4) cm-1        Axes

              Baa    -0.0725    -9.729    -3.472    -3.245  0.3230  0.9455  0.0416
     1 C(13)  Bbb    -0.0568    -7.616    -2.718    -2.540  0.9304 -0.3253  0.1690
              Bcc     0.1293    17.346     6.189     5.786 -0.1733  0.0159  0.9847
 
              Baa    -0.0924   -12.404    -4.426    -4.138  0.9300 -0.3644 -0.0476
     2 C(13)  Bbb    -0.0758   -10.169    -3.628    -3.392  0.3636  0.9312 -0.0257
              Bcc     0.1682    22.573     8.054     7.529  0.0537  0.0066  0.9985
 
              Baa    -0.2185   -29.316   -10.461    -9.779  0.9102 -0.4142 -0.0050
     3 C(13)  Bbb    -0.2117   -28.410   -10.138    -9.477  0.4142  0.9102 -0.0052
              Bcc     0.4302    57.726    20.598    19.255  0.0067  0.0027  1.0000
 
              Baa    -0.2174    -8.914    -3.181    -2.973  0.7676 -0.6409  0.0093
     4 S(33)  Bbb    -0.1912    -7.841    -2.798    -2.615  0.6397  0.7670  0.0500
              Bcc     0.4087    16.755     5.978     5.589 -0.0392 -0.0324  0.9987
 
              Baa    -0.0135    -7.189    -2.565    -2.398  0.9139  0.4027 -0.0512
     5 H(1)   Bbb    -0.0067    -3.592    -1.282    -1.198  0.0512  0.0108  0.9986
              Bcc     0.0202    10.780     3.847     3.596 -0.4027  0.9153  0.0108
 
              Baa    -0.0278   -14.831    -5.292    -4.947 -0.4216  0.9068 -0.0013
     6 H(1)   Bbb    -0.0066    -3.513    -1.254    -1.172  0.0056  0.0040  1.0000
              Bcc     0.0344    18.344     6.546     6.119  0.9067  0.4216 -0.0068
 
              Baa    -0.1130    -4.358    -1.555    -1.454  0.2962  0.9550 -0.0183
     7 N(14)  Bbb    -0.1071    -4.132    -1.474    -1.378  0.9529 -0.2968 -0.0622
              Bcc     0.2201     8.490     3.030     2.832  0.0648 -0.0010  0.9979
 
              Baa    -0.3467   -13.370    -4.771    -4.460 -0.2132  0.9631 -0.1645
     8 N(14)  Bbb    -0.3424   -13.204    -4.711    -4.404  0.9652  0.2337  0.1175
              Bcc     0.6890    26.573     9.482     8.864 -0.1516  0.1337  0.9794
 
              Baa    -0.0286   -15.258    -5.444    -5.089  0.8246 -0.5282  0.2025
     9 H(1)   Bbb    -0.0122    -6.520    -2.326    -2.175 -0.2644 -0.0435  0.9634
              Bcc     0.0408    21.777     7.771     7.264  0.5001  0.8480  0.1755
 
              Baa    -0.0295   -15.757    -5.622    -5.256  0.8790  0.4760  0.0267
    10 H(1)   Bbb    -0.0128    -6.839    -2.440    -2.281 -0.1920  0.3022  0.9337
              Bcc     0.0423    22.596     8.063     7.537 -0.4364  0.8259 -0.3570
 

 ---------------------------------------------------------------------------------

 ******************************Gaussian NBO Version 3.1******************************
             N A T U R A L   A T O M I C   O R B I T A L   A N D
          N A T U R A L   B O N D   O R B I T A L   A N A L Y S I S
 ******************************Gaussian NBO Version 3.1******************************
       /RESON  / : Allow strongly delocalized NBO set

 Analyzing the SCF density

 Job title: ATZ+1                                                           

 Storage needed:     48294 in NPA,     64005 in NBO ( 536870332 available)


 NATURAL POPULATIONS:  Natural atomic orbital occupancies 
                                                          
   NAO  Atom  No  lang   Type(AO)    Occupancy
 --------------------------------------------
     1    C    1  S      Cor( 1S)     1.99930
     2    C    1  S      Val( 2S)     0.91404
     3    C    1  S      Ryd( 3S)     0.00577
     4    C    1  S      Ryd( 4S)     0.00034
     5    C    1  S      Ryd( 5S)     0.00014
     6    C    1  px     Val( 2p)     0.90944
     7    C    1  px     Ryd( 3p)     0.00674
     8    C    1  px     Ryd( 4p)     0.00050
     9    C    1  py     Val( 2p)     0.96666
    10    C    1  py     Ryd( 3p)     0.01201
    11    C    1  py     Ryd( 4p)     0.00102
    12    C    1  pz     Val( 2p)     0.90753
    13    C    1  pz     Ryd( 3p)     0.00188
    14    C    1  pz     Ryd( 4p)     0.00055
    15    C    1  dxy    Ryd( 3d)     0.00196
    16    C    1  dxz    Ryd( 3d)     0.00172
    17    C    1  dyz    Ryd( 3d)     0.00134
    18    C    1  dx2y2  Ryd( 3d)     0.00210
    19    C    1  dz2    Ryd( 3d)     0.00063

    20    C    2  S      Cor( 1S)     1.99911
    21    C    2  S      Val( 2S)     0.98195
    22    C    2  S      Ryd( 3S)     0.00182
    23    C    2  S      Ryd( 4S)     0.00023
    24    C    2  S      Ryd( 5S)     0.00008
    25    C    2  px     Val( 2p)     0.94686
    26    C    2  px     Ryd( 3p)     0.00811
    27    C    2  px     Ryd( 4p)     0.00034
    28    C    2  py     Val( 2p)     1.15467
    29    C    2  py     Ryd( 3p)     0.00793
    30    C    2  py     Ryd( 4p)     0.00058
    31    C    2  pz     Val( 2p)     0.84526
    32    C    2  pz     Ryd( 3p)     0.00088
    33    C    2  pz     Ryd( 4p)     0.00033
    34    C    2  dxy    Ryd( 3d)     0.00158
    35    C    2  dxz    Ryd( 3d)     0.00085
    36    C    2  dyz    Ryd( 3d)     0.00072
    37    C    2  dx2y2  Ryd( 3d)     0.00098
    38    C    2  dz2    Ryd( 3d)     0.00042

    39    C    3  S      Cor( 1S)     1.99909
    40    C    3  S      Val( 2S)     1.10725
    41    C    3  S      Ryd( 3S)     0.00112
    42    C    3  S      Ryd( 4S)     0.00048
    43    C    3  S      Ryd( 5S)     0.00003
    44    C    3  px     Val( 2p)     1.19871
    45    C    3  px     Ryd( 3p)     0.00337
    46    C    3  px     Ryd( 4p)     0.00021
    47    C    3  py     Val( 2p)     1.05983
    48    C    3  py     Ryd( 3p)     0.00559
    49    C    3  py     Ryd( 4p)     0.00018
    50    C    3  pz     Val( 2p)     0.92124
    51    C    3  pz     Ryd( 3p)     0.00092
    52    C    3  pz     Ryd( 4p)     0.00029
    53    C    3  dxy    Ryd( 3d)     0.00147
    54    C    3  dxz    Ryd( 3d)     0.00088
    55    C    3  dyz    Ryd( 3d)     0.00076
    56    C    3  dx2y2  Ryd( 3d)     0.00079
    57    C    3  dz2    Ryd( 3d)     0.00088

    58    S    4  S      Cor( 1S)     2.00000
    59    S    4  S      Cor( 2S)     1.99933
    60    S    4  S      Val( 3S)     1.68547
    61    S    4  S      Ryd( 4S)     0.00455
    62    S    4  S      Ryd( 5S)     0.00025
    63    S    4  S      Ryd( 6S)     0.00002
    64    S    4  px     Cor( 2p)     1.99986
    65    S    4  px     Val( 3p)     0.90039
    66    S    4  px     Ryd( 4p)     0.00494
    67    S    4  px     Ryd( 5p)     0.00017
    68    S    4  py     Cor( 2p)     1.99985
    69    S    4  py     Val( 3p)     1.27151
    70    S    4  py     Ryd( 4p)     0.00139
    71    S    4  py     Ryd( 5p)     0.00008
    72    S    4  pz     Cor( 2p)     1.99993
    73    S    4  pz     Val( 3p)     1.56136
    74    S    4  pz     Ryd( 4p)     0.00319
    75    S    4  pz     Ryd( 5p)     0.00007
    76    S    4  dxy    Ryd( 3d)     0.01003
    77    S    4  dxz    Ryd( 3d)     0.00292
    78    S    4  dyz    Ryd( 3d)     0.00357
    79    S    4  dx2y2  Ryd( 3d)     0.00244
    80    S    4  dz2    Ryd( 3d)     0.00303

    81    H    5  S      Val( 1S)     0.70454
    82    H    5  S      Ryd( 2S)     0.00035

    83    H    6  S      Val( 1S)     0.68538
    84    H    6  S      Ryd( 2S)     0.00059

    85    N    7  S      Cor( 1S)     1.99931
    86    N    7  S      Val( 2S)     1.40068
    87    N    7  S      Ryd( 3S)     0.00251
    88    N    7  S      Ryd( 4S)     0.00010
    89    N    7  S      Ryd( 5S)     0.00003
    90    N    7  px     Val( 2p)     1.27516
    91    N    7  px     Ryd( 3p)     0.00531
    92    N    7  px     Ryd( 4p)     0.00034
    93    N    7  py     Val( 2p)     1.54205
    94    N    7  py     Ryd( 3p)     0.00491
    95    N    7  py     Ryd( 4p)     0.00026
    96    N    7  pz     Val( 2p)     1.18112
    97    N    7  pz     Ryd( 3p)     0.00100
    98    N    7  pz     Ryd( 4p)     0.00011
    99    N    7  dxy    Ryd( 3d)     0.00392
   100    N    7  dxz    Ryd( 3d)     0.00065
   101    N    7  dyz    Ryd( 3d)     0.00332
   102    N    7  dx2y2  Ryd( 3d)     0.00355
   103    N    7  dz2    Ryd( 3d)     0.00305

   104    N    8  S      Cor( 1S)     1.99941
   105    N    8  S      Val( 2S)     1.37521
   106    N    8  S      Ryd( 3S)     0.00069
   107    N    8  S      Ryd( 4S)     0.00011
   108    N    8  S      Ryd( 5S)     0.00002
   109    N    8  px     Val( 2p)     1.30523
   110    N    8  px     Ryd( 3p)     0.00216
   111    N    8  px     Ryd( 4p)     0.00043
   112    N    8  py     Val( 2p)     1.46406
   113    N    8  py     Ryd( 3p)     0.00338
   114    N    8  py     Ryd( 4p)     0.00034
   115    N    8  pz     Val( 2p)     1.50664
   116    N    8  pz     Ryd( 3p)     0.00410
   117    N    8  pz     Ryd( 4p)     0.00021
   118    N    8  dxy    Ryd( 3d)     0.00035
   119    N    8  dxz    Ryd( 3d)     0.00098
   120    N    8  dyz    Ryd( 3d)     0.00103
   121    N    8  dx2y2  Ryd( 3d)     0.00069
   122    N    8  dz2    Ryd( 3d)     0.00080

   123    H    9  S      Val( 1S)     0.53057
   124    H    9  S      Ryd( 2S)     0.00199

   125    H   10  S      Val( 1S)     0.53901
   126    H   10  S      Ryd( 2S)     0.00055


 Summary of Natural Population Analysis:                  
                                                          
                                       Natural Population 
                Natural  -----------------------------------------------
    Atom  No    Charge         Core      Valence    Rydberg      Total
 -----------------------------------------------------------------------
      C    1    0.26632      1.99930     3.69767    0.03671     5.73368
      C    2    0.04731      1.99911     3.92873    0.02486     5.95269
      C    3   -0.30308      1.99909     4.28703    0.01696     6.30308
      S    4    0.54563      9.99897     5.41873    0.03666    15.45437
      H    5    0.29511      0.00000     0.70454    0.00035     0.70489
      H    6    0.31403      0.00000     0.68538    0.00059     0.68597
      N    7   -0.42737      1.99931     5.39901    0.02906     7.42737
      N    8   -0.66583      1.99941     5.65114    0.01528     7.66583
      H    9    0.46743      0.00000     0.53057    0.00199     0.53257
      H   10    0.46044      0.00000     0.53901    0.00055     0.53956
 =======================================================================
   * Total *    1.00000     19.99519    30.84181    0.16300    51.00000

                                 Natural Population      
 --------------------------------------------------------
   Core                      19.99519 ( 99.9760% of  20)
   Valence                   30.84181 ( 99.4897% of  31)
   Natural Minimal Basis     50.83700 ( 99.6804% of  51)
   Natural Rydberg Basis      0.16300 (  0.3196% of  51)
 --------------------------------------------------------

    Atom  No          Natural Electron Configuration
 ----------------------------------------------------------------------------
      C    1      [core]2S( 0.91)2p( 2.78)3S( 0.01)3p( 0.02)3d( 0.01)
      C    2      [core]2S( 0.98)2p( 2.95)3p( 0.02)
      C    3      [core]2S( 1.11)2p( 3.18)3p( 0.01)
      S    4      [core]3S( 1.69)3p( 3.73)3d( 0.02)4p( 0.01)
      H    5            1S( 0.70)
      H    6            1S( 0.69)
      N    7      [core]2S( 1.40)2p( 4.00)3p( 0.01)3d( 0.01)
      N    8      [core]2S( 1.38)2p( 4.28)3p( 0.01)
      H    9            1S( 0.53)
      H   10            1S( 0.54)


 ***************************************************
 *******         Alpha spin orbitals         *******
 ***************************************************


 NATURAL POPULATIONS:  Natural atomic orbital occupancies 
                                                          
   NAO  Atom  No  lang   Type(AO)    Occupancy      Energy
 ----------------------------------------------------------
     1    C    1  S      Cor( 1S)     0.99965     -10.41338
     2    C    1  S      Val( 2S)     0.45797      -0.48385
     3    C    1  S      Ryd( 4S)     0.00295       0.75563
     4    C    1  S      Ryd( 3S)     0.00018       0.68546
     5    C    1  S      Ryd( 5S)     0.00007       3.38174
     6    C    1  px     Val( 2p)     0.45305      -0.32485
     7    C    1  px     Ryd( 4p)     0.00347       0.60814
     8    C    1  px     Ryd( 3p)     0.00025       0.19410
     9    C    1  py     Val( 2p)     0.48289      -0.34347
    10    C    1  py     Ryd( 4p)     0.00601       0.52599
    11    C    1  py     Ryd( 3p)     0.00051       0.12379
    12    C    1  pz     Val( 2p)     0.50108      -0.39215
    13    C    1  pz     Ryd( 4p)     0.00112       0.36760
    14    C    1  pz     Ryd( 3p)     0.00027       0.07939
    15    C    1  dxy    Ryd( 3d)     0.00098       2.19869
    16    C    1  dxz    Ryd( 3d)     0.00102       1.69856
    17    C    1  dyz    Ryd( 3d)     0.00070       1.76544
    18    C    1  dx2y2  Ryd( 3d)     0.00104       2.21150
    19    C    1  dz2    Ryd( 3d)     0.00028       1.98532

    20    C    2  S      Cor( 1S)     0.99956     -10.32707
    21    C    2  S      Val( 2S)     0.49248      -0.44293
    22    C    2  S      Ryd( 4S)     0.00091       0.66939
    23    C    2  S      Ryd( 3S)     0.00011       0.47164
    24    C    2  S      Ryd( 5S)     0.00004       3.76273
    25    C    2  px     Val( 2p)     0.47353      -0.26066
    26    C    2  px     Ryd( 4p)     0.00408       0.56489
    27    C    2  px     Ryd( 3p)     0.00017       0.18169
    28    C    2  py     Val( 2p)     0.57561      -0.29778
    29    C    2  py     Ryd( 4p)     0.00398       0.64290
    30    C    2  py     Ryd( 3p)     0.00029       0.18470
    31    C    2  pz     Val( 2p)     0.48637      -0.35289
    32    C    2  pz     Ryd( 4p)     0.00040       0.37447
    33    C    2  pz     Ryd( 3p)     0.00017       0.08247
    34    C    2  dxy    Ryd( 3d)     0.00079       2.22486
    35    C    2  dxz    Ryd( 3d)     0.00050       1.79650
    36    C    2  dyz    Ryd( 3d)     0.00054       1.62768
    37    C    2  dx2y2  Ryd( 3d)     0.00048       2.26064
    38    C    2  dz2    Ryd( 3d)     0.00017       2.10688

    39    C    3  S      Cor( 1S)     0.99955     -10.34582
    40    C    3  S      Val( 2S)     0.56068      -0.54888
    41    C    3  S      Ryd( 4S)     0.00054       0.80466
    42    C    3  S      Ryd( 3S)     0.00024       0.21529
    43    C    3  S      Ryd( 5S)     0.00002       3.93577
    44    C    3  px     Val( 2p)     0.60287      -0.35984
    45    C    3  px     Ryd( 4p)     0.00170       0.77634
    46    C    3  px     Ryd( 3p)     0.00010       0.19487
    47    C    3  py     Val( 2p)     0.53169      -0.34241
    48    C    3  py     Ryd( 4p)     0.00280       0.37824
    49    C    3  py     Ryd( 3p)     0.00009       0.18484
    50    C    3  pz     Val( 2p)     0.62115      -0.40581
    51    C    3  pz     Ryd( 4p)     0.00033       0.33211
    52    C    3  pz     Ryd( 3p)     0.00021       0.12230
    53    C    3  dxy    Ryd( 3d)     0.00073       2.00683
    54    C    3  dxz    Ryd( 3d)     0.00042       1.46220
    55    C    3  dyz    Ryd( 3d)     0.00054       1.61701
    56    C    3  dx2y2  Ryd( 3d)     0.00040       2.01076
    57    C    3  dz2    Ryd( 3d)     0.00029       1.88749

    58    S    4  S      Cor( 1S)     1.00000     -87.97532
    59    S    4  S      Cor( 2S)     0.99967      -9.10942
    60    S    4  S      Val( 3S)     0.84361      -0.97457
    61    S    4  S      Ryd( 5S)     0.00230       0.35490
    62    S    4  S      Ryd( 4S)     0.00013       0.16991
    63    S    4  S      Ryd( 6S)     0.00001       3.67206
    64    S    4  px     Cor( 2p)     0.99993      -6.16263
    65    S    4  px     Val( 3p)     0.44680      -0.39392
    66    S    4  px     Ryd( 5p)     0.00247       0.24445
    67    S    4  px     Ryd( 4p)     0.00009       0.08426
    68    S    4  py     Cor( 2p)     0.99992      -6.15959
    69    S    4  py     Val( 3p)     0.63255      -0.41374
    70    S    4  py     Ryd( 5p)     0.00068       0.19800
    71    S    4  py     Ryd( 4p)     0.00004       0.03408
    72    S    4  pz     Cor( 2p)     0.99998      -6.15906
    73    S    4  pz     Val( 3p)     0.81752      -0.47003
    74    S    4  pz     Ryd( 5p)     0.00174       0.23549
    75    S    4  pz     Ryd( 4p)     0.00004       0.04966
    76    S    4  dxy    Ryd( 3d)     0.00496       0.94852
    77    S    4  dxz    Ryd( 3d)     0.00198       0.60016
    78    S    4  dyz    Ryd( 3d)     0.00181       0.62230
    79    S    4  dx2y2  Ryd( 3d)     0.00120       0.87981
    80    S    4  dz2    Ryd( 3d)     0.00150       0.83695

    81    H    5  S      Val( 1S)     0.35002      -0.09413
    82    H    5  S      Ryd( 2S)     0.00017       0.35967

    83    H    6  S      Val( 1S)     0.33737      -0.09632
    84    H    6  S      Ryd( 2S)     0.00030       0.34138

    85    N    7  S      Cor( 1S)     0.99965     -14.36560
    86    N    7  S      Val( 2S)     0.70161      -0.76578
    87    N    7  S      Ryd( 3S)     0.00125       0.70297
    88    N    7  S      Ryd( 4S)     0.00005       1.27294
    89    N    7  S      Ryd( 5S)     0.00001       3.69387
    90    N    7  px     Val( 2p)     0.63729      -0.39163
    91    N    7  px     Ryd( 4p)     0.00266       0.74054
    92    N    7  px     Ryd( 3p)     0.00017       0.57938
    93    N    7  py     Val( 2p)     0.76973      -0.43669
    94    N    7  py     Ryd( 4p)     0.00242       0.58268
    95    N    7  py     Ryd( 3p)     0.00013       0.47311
    96    N    7  pz     Val( 2p)     0.63508      -0.41000
    97    N    7  pz     Ryd( 4p)     0.00054       0.49466
    98    N    7  pz     Ryd( 3p)     0.00005       0.38623
    99    N    7  dxy    Ryd( 3d)     0.00196       1.91227
   100    N    7  dxz    Ryd( 3d)     0.00025       1.53067
   101    N    7  dyz    Ryd( 3d)     0.00194       1.54512
   102    N    7  dx2y2  Ryd( 3d)     0.00177       1.97315
   103    N    7  dz2    Ryd( 3d)     0.00149       1.85589

   104    N    8  S      Cor( 1S)     0.99974     -14.46267
   105    N    8  S      Val( 2S)     0.69756      -0.83918
   106    N    8  S      Ryd( 4S)     0.00036       0.95239
   107    N    8  S      Ryd( 3S)     0.00005       0.84989
   108    N    8  S      Ryd( 5S)     0.00001       3.37195
   109    N    8  px     Val( 2p)     0.65833      -0.47107
   110    N    8  px     Ryd( 3p)     0.00110       0.33408
   111    N    8  px     Ryd( 4p)     0.00022       0.49068
   112    N    8  py     Val( 2p)     0.73740      -0.48309
   113    N    8  py     Ryd( 4p)     0.00170       0.60700
   114    N    8  py     Ryd( 3p)     0.00017       0.50262
   115    N    8  pz     Val( 2p)     0.88510      -0.51540
   116    N    8  pz     Ryd( 3p)     0.00262       0.30754
   117    N    8  pz     Ryd( 4p)     0.00009       0.43467
   118    N    8  dxy    Ryd( 3d)     0.00018       1.96048
   119    N    8  dxz    Ryd( 3d)     0.00038       1.65871
   120    N    8  dyz    Ryd( 3d)     0.00048       1.76931
   121    N    8  dx2y2  Ryd( 3d)     0.00033       2.10098
   122    N    8  dz2    Ryd( 3d)     0.00031       1.83336

   123    H    9  S      Val( 1S)     0.26218      -0.06952
   124    H    9  S      Ryd( 2S)     0.00099       0.41623

   125    H   10  S      Val( 1S)     0.26757      -0.08202
   126    H   10  S      Ryd( 2S)     0.00027       0.39140

 WARNING:  Population inversion found on atom  C    1
           Population inversion found on atom  C    2
           Population inversion found on atom  C    3
           Population inversion found on atom  S    4
           Population inversion found on atom  N    7
           Population inversion found on atom  N    8


 Summary of Natural Population Analysis:                  
                                                          
                                       Natural Population 
                Natural  -----------------------------------------------
    Atom  No    Charge         Core      Valence    Rydberg      Total
 -----------------------------------------------------------------------
      C    1    0.08652      0.99965     1.89499    0.01885     2.91348
      C    2   -0.04018      0.99956     2.02798    0.01264     3.04018
      C    3   -0.32435      0.99955     2.31639    0.00841     3.32435
      S    4    0.24106      4.99951     2.74047    0.01896     7.75894
      H    5    0.14981      0.00000     0.35002    0.00017     0.35019
      H    6    0.16233      0.00000     0.33737    0.00030     0.33767
      N    7   -0.25806      0.99965     2.74371    0.01469     3.75806
      N    8   -0.48612      0.99974     2.97839    0.00799     3.98612
      H    9    0.23683      0.00000     0.26218    0.00099     0.26317
      H   10    0.23216      0.00000     0.26757    0.00027     0.26784
 =======================================================================
   * Total *    0.00000      9.99766    15.91907    0.08327    26.00000

                                 Natural Population      
 --------------------------------------------------------
   Core                       9.99766 ( 99.9766% of  10)
   Valence                   15.91907 ( 99.4942% of  16)
   Natural Minimal Basis     25.91673 ( 99.6797% of  26)
   Natural Rydberg Basis      0.08327 (  0.3203% of  26)
 --------------------------------------------------------

    Atom  No          Natural Electron Configuration
 ----------------------------------------------------------------------------
      C    1      [core]2S( 0.46)2p( 1.44)4p( 0.01)
      C    2      [core]2S( 0.49)2p( 1.54)4p( 0.01)
      C    3      [core]2S( 0.56)2p( 1.76)
      S    4      [core]3S( 0.84)3p( 1.90)3d( 0.01)
      H    5            1S( 0.35)
      H    6            1S( 0.34)
      N    7      [core]2S( 0.70)2p( 2.04)3d( 0.01)4p( 0.01)
      N    8      [core]2S( 0.70)2p( 2.28)
      H    9            1S( 0.26)
      H   10            1S( 0.27)


 NATURAL BOND ORBITAL ANALYSIS, alpha spin orbitals:

                       Occupancies       Lewis Structure    Low   High
           Occ.    -------------------  -----------------   occ   occ
  Cycle   Thresh.   Lewis   Non-Lewis     CR  BD  3C  LP    (L)   (NL)   Dev
 =============================================================================
   1(1)    0.90    25.34024   0.65976     10  12   0   4     1      2    0.03
   2(2)    0.90    25.34024   0.65976     10  12   0   4     1      2    0.03
   3(1)    0.80    25.03880   0.96120     10  11   0   5     1      2    0.03
   4(2)    0.80    25.50124   0.49876     10  12   0   4     0      2    0.03
 -----------------------------------------------------------------------------

 Structure accepted: No low occupancy Lewis orbitals

 --------------------------------------------------------
   Core                      9.99766 ( 99.977% of  10)
   Valence Lewis            15.50358 ( 96.897% of  16)
  ==================       ============================
   Total Lewis              25.50124 ( 98.082% of  26)
  -----------------------------------------------------
   Valence non-Lewis         0.45809 (  1.762% of  26)
   Rydberg non-Lewis         0.04068 (  0.156% of  26)
  ==================       ============================
   Total non-Lewis           0.49876 (  1.918% of  26)
 --------------------------------------------------------


       (Occupancy)   Bond orbital/ Coefficients/ Hybrids
 ---------------------------------------------------------------------------------
     1. (0.98962) BD ( 1) C   1 - S   4  
                ( 54.68%)   0.7394* C   1 s( 29.66%)p 2.37( 70.22%)d 0.00(  0.12%)
                                           -0.0001  0.5425  0.0477 -0.0047 -0.0016
                                           -0.4580 -0.0430  0.0106 -0.7002 -0.0102
                                            0.0118 -0.0033  0.0011 -0.0004  0.0286
                                            0.0012  0.0003 -0.0106 -0.0156
                ( 45.32%)   0.6732* S   4 s( 14.09%)p 6.04( 85.17%)d 0.05(  0.74%)
                                            0.0000  0.0002  0.3731 -0.0416  0.0044
                                            0.0003  0.0001  0.6192 -0.0483  0.0017
                                            0.0001  0.6824 -0.0157 -0.0008  0.0000
                                            0.0115 -0.0003 -0.0003  0.0735  0.0011
                                            0.0011 -0.0243 -0.0370
     2. (0.99422) BD ( 1) C   1 - N   7  
                ( 41.98%)   0.6479* C   1 s( 36.53%)p 1.74( 63.42%)d 0.00(  0.05%)
                                            0.0000  0.6039 -0.0258 -0.0003  0.0021
                                           -0.3640 -0.0121  0.0063  0.7056 -0.0591
                                           -0.0066  0.0115  0.0004  0.0001 -0.0148
                                           -0.0003 -0.0002 -0.0126 -0.0106
                ( 58.02%)   0.7617* N   7 s( 34.65%)p 1.88( 65.08%)d 0.01(  0.27%)
                                           -0.0001  0.5881 -0.0233 -0.0014 -0.0005
                                            0.4352 -0.0272 -0.0059 -0.6786 -0.0026
                                            0.0070  0.0092 -0.0004  0.0004 -0.0264
                                           -0.0001 -0.0004 -0.0326 -0.0312
     3. (0.93646) BD ( 2) C   1 - N   7  
                ( 40.77%)   0.6385* C   1 s(  0.01%)p 1.00( 99.88%)d 0.00(  0.11%)
                                            0.0001  0.0086  0.0036  0.0014  0.0010
                                            0.0218  0.0032 -0.0010 -0.0123 -0.0008
                                            0.0004  0.9988  0.0131  0.0199 -0.0005
                                           -0.0232  0.0232 -0.0001  0.0002
                ( 59.23%)   0.7696* N   7 s(  0.01%)p 1.00( 99.67%)d 0.00(  0.33%)
                                           -0.0001 -0.0084  0.0026  0.0001 -0.0002
                                           -0.0074  0.0017  0.0003  0.0014 -0.0012
                                           -0.0012  0.9981 -0.0190  0.0037  0.0001
                                           -0.0109 -0.0561  0.0002  0.0007
     4. (0.99707) BD ( 1) C   1 - N   8  
                ( 40.75%)   0.6384* C   1 s( 33.68%)p 1.97( 66.22%)d 0.00(  0.10%)
                                            0.0003 -0.5792  0.0362 -0.0074  0.0012
                                           -0.8083  0.0419  0.0069  0.0802  0.0005
                                           -0.0005  0.0236 -0.0080  0.0000  0.0061
                                            0.0022 -0.0001 -0.0275  0.0131
                ( 59.25%)   0.7697* N   8 s( 33.81%)p 1.96( 66.15%)d 0.00(  0.05%)
                                           -0.0001 -0.5814  0.0002  0.0021  0.0032
                                            0.8104 -0.0154 -0.0094 -0.0536 -0.0023
                                            0.0010 -0.0391 -0.0025 -0.0005  0.0037
                                            0.0097 -0.0002 -0.0156  0.0109
     5. (0.99559) BD ( 1) C   2 - C   3  
                ( 49.02%)   0.7001* C   2 s( 36.24%)p 1.76( 63.70%)d 0.00(  0.06%)
                                            0.0000  0.6019 -0.0079 -0.0069  0.0008
                                           -0.2707  0.0392 -0.0040 -0.7496  0.0088
                                            0.0109 -0.0110 -0.0003 -0.0002  0.0108
                                            0.0002  0.0003 -0.0197 -0.0081
                ( 50.98%)   0.7140* C   3 s( 37.77%)p 1.65( 62.18%)d 0.00(  0.05%)
                                            0.0001  0.6144 -0.0119  0.0048  0.0023
                                            0.2241  0.0254 -0.0072  0.7544 -0.0392
                                           -0.0019 -0.0171 -0.0004 -0.0002  0.0153
                                           -0.0004 -0.0005 -0.0118 -0.0093
     6. (0.96804) BD ( 2) C   2 - C   3  
                ( 41.85%)   0.6469* C   2 s(  0.00%)p 1.00( 99.86%)d 0.00(  0.14%)
                                            0.0000  0.0066 -0.0008  0.0005  0.0000
                                            0.0023  0.0004 -0.0008 -0.0102  0.0003
                                            0.0003  0.9990  0.0143  0.0165 -0.0003
                                           -0.0072 -0.0361 -0.0004  0.0003
                ( 58.15%)   0.7626* C   3 s(  0.00%)p 1.00( 99.91%)d 0.00(  0.09%)
                                            0.0000  0.0061 -0.0004 -0.0003  0.0000
                                            0.0146  0.0001 -0.0006  0.0133 -0.0002
                                            0.0002  0.9991  0.0134  0.0158  0.0004
                                            0.0198  0.0227  0.0002 -0.0005
     7. (0.98905) BD ( 1) C   2 - H   5  
                ( 65.16%)   0.8072* C   2 s( 34.71%)p 1.88( 65.25%)d 0.00(  0.05%)
                                           -0.0004  0.5888  0.0174  0.0052 -0.0012
                                           -0.4839 -0.0234  0.0041  0.6462  0.0119
                                           -0.0022  0.0038  0.0003  0.0000 -0.0186
                                           -0.0001  0.0003 -0.0051 -0.0094
                ( 34.84%)   0.5902* H   5 s(100.00%)
                                            1.0000  0.0025
     8. (0.98913) BD ( 1) C   2 - N   7  
                ( 40.53%)   0.6366* C   2 s( 29.02%)p 2.44( 70.91%)d 0.00(  0.07%)
                                            0.0000  0.5384 -0.0178  0.0012  0.0008
                                            0.8288 -0.0309 -0.0111  0.1307 -0.0621
                                            0.0082 -0.0041 -0.0004 -0.0001  0.0038
                                            0.0001  0.0000  0.0222 -0.0133
                ( 59.47%)   0.7712* N   7 s( 31.59%)p 2.16( 68.17%)d 0.01(  0.24%)
                                           -0.0004  0.5617 -0.0186  0.0016  0.0012
                                           -0.8238  0.0141  0.0094 -0.0425 -0.0309
                                            0.0036 -0.0013  0.0002 -0.0002  0.0307
                                            0.0001 -0.0002  0.0249 -0.0287
     9. (0.98795) BD ( 1) C   3 - S   4  
                ( 52.84%)   0.7269* C   3 s( 24.67%)p 3.05( 75.20%)d 0.01(  0.13%)
                                           -0.0002  0.4963  0.0152 -0.0138 -0.0011
                                            0.6329  0.0312 -0.0094 -0.5904  0.0426
                                            0.0066 -0.0044  0.0000  0.0002 -0.0279
                                           -0.0003  0.0003  0.0110 -0.0188
                ( 47.16%)   0.6868* S   4 s( 16.19%)p 5.13( 83.12%)d 0.04(  0.70%)
                                            0.0000  0.0000  0.3997 -0.0456 -0.0024
                                           -0.0003 -0.0001 -0.7692  0.0516 -0.0002
                                           -0.0001  0.4865  0.0011 -0.0032  0.0000
                                            0.0111 -0.0003 -0.0003 -0.0742 -0.0014
                                            0.0011  0.0101 -0.0369
    10. (0.99293) BD ( 1) C   3 - H   6  
                ( 66.34%)   0.8145* C   3 s( 37.48%)p 1.67( 62.48%)d 0.00(  0.03%)
                                            0.0002 -0.6122  0.0000 -0.0067  0.0006
                                            0.7395  0.0039 -0.0005  0.2789  0.0030
                                            0.0011 -0.0108  0.0000  0.0000 -0.0117
                                            0.0006  0.0002 -0.0113  0.0088
                ( 33.66%)   0.5802* H   6 s(100.00%)
                                           -1.0000 -0.0039
    11. (0.99127) BD ( 1) N   8 - H   9  
                ( 73.90%)   0.8596* N   8 s( 27.46%)p 2.64( 72.48%)d 0.00(  0.06%)
                                           -0.0003  0.5240  0.0032  0.0032  0.0007
                                            0.4305 -0.0230  0.0059  0.7157 -0.0030
                                           -0.0076  0.1629  0.0071  0.0018  0.0100
                                            0.0076  0.0144 -0.0118 -0.0079
                ( 26.10%)   0.5109* H   9 s(100.00%)
                                            1.0000 -0.0072
    12. (0.99176) BD ( 1) N   8 - H  10  
                ( 73.26%)   0.8559* N   8 s( 26.97%)p 2.71( 72.97%)d 0.00(  0.06%)
                                           -0.0003  0.5194 -0.0020  0.0028  0.0010
                                            0.3459 -0.0255  0.0054 -0.6772  0.0102
                                            0.0065  0.3881  0.0030 -0.0002 -0.0064
                                            0.0073 -0.0202 -0.0084  0.0013
                ( 26.74%)   0.5171* H  10 s(100.00%)
                                            1.0000 -0.0030
    13. (0.99965) CR ( 1) C   1           s(100.00%)p 0.00(  0.00%)
                                            1.0000  0.0002  0.0000  0.0000  0.0000
                                            0.0002  0.0000  0.0000 -0.0001  0.0000
                                            0.0000 -0.0001  0.0000  0.0000  0.0000
                                            0.0000  0.0000  0.0000  0.0000
    14. (0.99956) CR ( 1) C   2           s(100.00%)p 0.00(  0.00%)
                                            1.0000  0.0003  0.0000  0.0000  0.0000
                                           -0.0002  0.0000  0.0000  0.0002  0.0000
                                            0.0000  0.0000  0.0000  0.0000  0.0000
                                            0.0000  0.0000  0.0000  0.0000
    15. (0.99956) CR ( 1) C   3           s(100.00%)p 0.00(  0.00%)
                                            1.0000  0.0002  0.0000  0.0000  0.0000
                                           -0.0001  0.0000  0.0000 -0.0002  0.0000
                                            0.0000  0.0000  0.0000  0.0000  0.0000
                                            0.0000  0.0000  0.0000  0.0000
    16. (1.00000) CR ( 1) S   4           s(100.00%)
                                            1.0000  0.0000  0.0000  0.0000  0.0000
                                            0.0000  0.0000  0.0000  0.0000  0.0000
                                            0.0000  0.0000  0.0000  0.0000  0.0000
                                            0.0000  0.0000  0.0000  0.0000  0.0000
                                            0.0000  0.0000  0.0000
    17. (0.99967) CR ( 2) S   4           s(100.00%)p 0.00(  0.00%)
                                            0.0000  1.0000  0.0003  0.0000  0.0000
                                            0.0000  0.0000 -0.0001  0.0000  0.0000
                                            0.0000 -0.0003  0.0000  0.0000  0.0000
                                            0.0000  0.0000  0.0000  0.0000  0.0000
                                            0.0000  0.0000  0.0000
    18. (0.99993) CR ( 3) S   4           s(  0.00%)p 1.00(100.00%)
                                            0.0000  0.0000  0.0000  0.0000  0.0000
                                            0.0000  1.0000 -0.0001  0.0000  0.0000
                                            0.0000 -0.0001  0.0000  0.0000  0.0000
                                            0.0000  0.0000  0.0000  0.0000  0.0000
                                            0.0000  0.0000  0.0000
    19. (0.99992) CR ( 4) S   4           s(  0.00%)p 1.00(100.00%)
                                            0.0000  0.0000  0.0001  0.0000  0.0000
                                            0.0000  0.0000 -0.0001  0.0000  0.0000
                                            1.0000 -0.0001  0.0000  0.0000  0.0000
                                            0.0000  0.0000  0.0000  0.0000  0.0000
                                            0.0000  0.0000  0.0000
    20. (0.99998) CR ( 5) S   4           s(  0.00%)p 1.00(100.00%)
                                            0.0000  0.0000  0.0000  0.0000  0.0000
                                            0.0000  0.0000  0.0000  0.0000  0.0000
                                            0.0000  0.0000  0.0000  0.0000  1.0000
                                           -0.0008  0.0000  0.0000  0.0000  0.0000
                                            0.0000  0.0000  0.0000
    21. (0.99966) CR ( 1) N   7           s(100.00%)p 0.00(  0.00%)
                                            1.0000  0.0002  0.0000  0.0000  0.0000
                                           -0.0004  0.0000  0.0000 -0.0002  0.0000
                                            0.0000  0.0001  0.0000  0.0000  0.0000
                                            0.0000  0.0000  0.0000  0.0000
    22. (0.99974) CR ( 1) N   8           s(100.00%)p 0.00(  0.00%)
                                            1.0000  0.0002  0.0000  0.0000  0.0000
                                            0.0002  0.0000  0.0000  0.0000  0.0000
                                            0.0000  0.0005  0.0000  0.0000  0.0000
                                            0.0000  0.0000  0.0000  0.0000
    23. (0.99198) LP ( 1) S   4           s( 70.06%)p 0.43( 29.91%)d 0.00(  0.03%)
                                            0.0000 -0.0004  0.8368  0.0205 -0.0003
                                           -0.0001  0.0000  0.0922  0.0032 -0.0009
                                           -0.0001 -0.5390 -0.0045 -0.0011  0.0000
                                            0.0016  0.0010  0.0001  0.0027  0.0004
                                           -0.0004  0.0107  0.0132
    24. (0.82015) LP ( 2) S   4           s(  0.01%)p99.99( 99.83%)d15.62(  0.16%)
                                            0.0000  0.0000  0.0101 -0.0016  0.0000
                                            0.0003  0.0000 -0.0015 -0.0026 -0.0002
                                            0.0000  0.0122  0.0002  0.0001 -0.0008
                                           -0.9983 -0.0382  0.0020  0.0010 -0.0039
                                           -0.0402 -0.0005 -0.0016
    25. (0.94412) LP ( 1) N   7           s( 33.79%)p 1.95( 65.99%)d 0.01(  0.21%)
                                            0.0001  0.5808  0.0246 -0.0002 -0.0007
                                            0.3565  0.0184  0.0006  0.7295  0.0162
                                            0.0064  0.0064  0.0006  0.0008 -0.0308
                                            0.0001  0.0000  0.0271  0.0215
    26. (0.92423) LP ( 1) N   8           s( 11.69%)p 7.55( 88.27%)d 0.00(  0.04%)
                                            0.0003  0.3419 -0.0010 -0.0044  0.0003
                                            0.1911  0.0022  0.0081 -0.1591 -0.0082
                                           -0.0025 -0.9052 -0.0350 -0.0070  0.0015
                                            0.0125 -0.0040 -0.0012 -0.0140
    27. (0.00478) RY*( 1) C   1           s(  3.14%)p30.72( 96.34%)d 0.17(  0.52%)
                                            0.0000  0.0471  0.1653  0.0179 -0.0389
                                           -0.0152  0.0784  0.0001  0.0405  0.9757
                                            0.0335  0.0009 -0.0449  0.0170  0.0082
                                            0.0299  0.0188 -0.0625 -0.0023
    28. (0.00251) RY*( 2) C   1           s( 39.10%)p 0.58( 22.85%)d 0.97( 38.05%)
                                            0.0000 -0.0138  0.6139  0.1137  0.0323
                                            0.0485 -0.2562  0.1043  0.0462 -0.1345
                                            0.3566 -0.0013 -0.0464  0.0096  0.3894
                                            0.0354  0.0260 -0.4753  0.0324
    29. (0.00176) RY*( 3) C   1           s(  4.56%)p17.62( 80.41%)d 3.29( 15.02%)
                                            0.0000  0.0386  0.1898  0.0727 -0.0535
                                            0.0229  0.7244  0.0732 -0.0158 -0.1292
                                           -0.0223 -0.0088 -0.4973  0.0930 -0.0597
                                           -0.0323  0.3729 -0.0779 -0.0220
    30. (0.00149) RY*( 4) C   1           s(  6.31%)p 7.31( 46.13%)d 7.53( 47.56%)
                                            0.0000  0.0188  0.1874  0.1660 -0.0110
                                            0.0089  0.3717  0.0285 -0.0041 -0.0192
                                           -0.0492 -0.0146  0.5156 -0.2310 -0.0684
                                           -0.6418 -0.2137 -0.1139  0.0185
    31. (0.00115) RY*( 5) C   1           s(  1.58%)p11.27( 17.80%)d51.06( 80.62%)
                                            0.0000  0.0209  0.1112 -0.0238 -0.0493
                                            0.0139  0.4008 -0.0255 -0.0061 -0.0573
                                           -0.0320  0.0255  0.1070  0.0064  0.0288
                                            0.5820 -0.6784 -0.0769 -0.0243
    32. (0.00056) RY*( 6) C   1           s( 22.05%)p 1.54( 33.98%)d 1.99( 43.98%)
                                            0.0000 -0.0018  0.4424  0.0215  0.1558
                                            0.0122 -0.2302 -0.1665 -0.0016 -0.0448
                                           -0.4979  0.0001 -0.0811  0.0487 -0.6243
                                            0.0555 -0.0176 -0.1759  0.1252
    33. (0.00023) RY*( 7) C   1           s( 26.03%)p 0.42( 10.96%)d 2.42( 63.01%)
                                            0.0000 -0.0022  0.4866 -0.1374  0.0678
                                            0.0039 -0.0527  0.2540  0.0324 -0.0216
                                           -0.1500  0.0032 -0.1053 -0.0846  0.2143
                                           -0.0767 -0.1104  0.7516 -0.0359
    34. (0.00016) RY*( 8) C   1           s(  8.38%)p 8.68( 72.77%)d 2.25( 18.85%)
                                            0.0000  0.0043  0.2021  0.2071 -0.0049
                                           -0.0106  0.0829 -0.7905  0.0105 -0.0332
                                            0.1856 -0.0069  0.2448 -0.0100  0.0572
                                            0.1682  0.2556  0.2826 -0.1087
    35. (0.00005) RY*( 9) C   1           s( 19.27%)p 2.20( 42.41%)d 1.99( 38.32%)
    36. (0.00005) RY*(10) C   1           s( 73.01%)p 0.10(  7.08%)d 0.27( 19.90%)
    37. (0.00003) RY*(11) C   1           s( 62.82%)p 0.34( 21.15%)d 0.26( 16.03%)
    38. (0.00001) RY*(12) C   1           s( 24.15%)p 1.99( 48.09%)d 1.15( 27.76%)
    39. (0.00000) RY*(13) C   1           s(  1.85%)p52.28( 96.60%)d 0.84(  1.55%)
    40. (0.00001) RY*(14) C   1           s(  7.85%)p 0.47(  3.71%)d11.26( 88.44%)
    41. (0.00359) RY*( 1) C   2           s(  7.00%)p12.08( 84.55%)d 1.21(  8.44%)
                                            0.0000  0.0149  0.2369 -0.1168 -0.0058
                                            0.0445  0.8439  0.0656  0.0471  0.3464
                                            0.0692  0.0003 -0.0099  0.0008  0.2899
                                            0.0040  0.0018  0.0081  0.0177
    42. (0.00259) RY*( 2) C   2           s(  8.41%)p10.04( 84.47%)d 0.85(  7.12%)
                                            0.0000 -0.0163  0.2820  0.0089  0.0652
                                           -0.0458  0.1922 -0.0197  0.0050 -0.8914
                                            0.1017  0.0010 -0.0128  0.0017  0.2643
                                            0.0075  0.0027  0.0010  0.0359
    43. (0.00069) RY*( 3) C   2           s(  0.08%)p11.02(  0.90%)d99.99( 99.02%)
                                            0.0000  0.0001  0.0283 -0.0032 -0.0006
                                            0.0010 -0.0186  0.0204 -0.0015  0.0122
                                            0.0024  0.0228 -0.0589  0.0637 -0.0068
                                            0.8835  0.4578  0.0043 -0.0061
    44. (0.00043) RY*( 4) C   2           s(  4.29%)p15.41( 66.10%)d 6.91( 29.62%)
                                            0.0000 -0.0004  0.1868  0.0469 -0.0760
                                            0.0165 -0.2799  0.4356 -0.0003  0.1375
                                            0.6082 -0.0006  0.0607  0.0029  0.2782
                                           -0.0212  0.0091 -0.4565  0.0991
    45. (0.00029) RY*( 5) C   2           s(  0.22%)p99.99( 83.39%)d75.77( 16.40%)
                                            0.0000  0.0004  0.0369  0.0254 -0.0125
                                            0.0018 -0.0296  0.0187 -0.0011  0.0208
                                            0.0291  0.0020 -0.9063 -0.1001 -0.0005
                                            0.1405 -0.3781 -0.0308  0.0171
    46. (0.00011) RY*( 6) C   2           s( 74.38%)p 0.23( 17.42%)d 0.11(  8.20%)
                                            0.0000  0.0100  0.8452  0.0602 -0.1604
                                            0.0160 -0.2692  0.0353 -0.0322  0.1596
                                           -0.2686  0.0001  0.0331 -0.0218 -0.0288
                                           -0.0317 -0.0011  0.2728  0.0755
    47. (0.00006) RY*( 7) C   2           s( 22.35%)p 0.38(  8.40%)d 3.10( 69.26%)
    48. (0.00004) RY*( 8) C   2           s( 61.22%)p 0.15(  9.07%)d 0.49( 29.71%)
    49. (0.00001) RY*( 9) C   2           s(  0.12%)p99.99( 99.03%)d 7.01(  0.85%)
    50. (0.00000) RY*(10) C   2           s( 37.75%)p 0.60( 22.77%)d 1.05( 39.48%)
    51. (0.00000) RY*(11) C   2           s( 14.36%)p 4.75( 68.22%)d 1.21( 17.41%)
    52. (0.00001) RY*(12) C   2           s( 42.80%)p 0.90( 38.46%)d 0.44( 18.74%)
    53. (0.00000) RY*(13) C   2           s(  0.05%)p99.99( 16.52%)d99.99( 83.43%)
    54. (0.00000) RY*(14) C   2           s( 26.99%)p 0.04(  1.00%)d 2.67( 72.01%)
    55. (0.00155) RY*( 1) C   3           s(  7.03%)p11.48( 80.73%)d 1.74( 12.24%)
                                            0.0000 -0.0188  0.2049  0.1668 -0.0139
                                           -0.0094  0.6102 -0.0207 -0.0345 -0.6536
                                            0.0770  0.0009 -0.0088 -0.0076 -0.1995
                                            0.0149 -0.0112 -0.2866  0.0107
    56. (0.00106) RY*( 2) C   3           s( 15.33%)p 4.97( 76.22%)d 0.55(  8.45%)
                                            0.0000 -0.0086  0.3622  0.1485 -0.0074
                                           -0.0352  0.4581  0.0390  0.0477  0.7322
                                            0.1058  0.0003  0.0019 -0.0004 -0.2417
                                            0.0044 -0.0035 -0.1595 -0.0235
    57. (0.00060) RY*( 3) C   3           s(  0.17%)p99.99( 17.11%)d99.99( 82.72%)
                                            0.0000  0.0012  0.0335  0.0225  0.0068
                                            0.0019 -0.0311  0.0232 -0.0003  0.0008
                                           -0.0365  0.0137  0.2096 -0.3523  0.0144
                                            0.3882 -0.8224  0.0021 -0.0017
    58. (0.00025) RY*( 4) C   3           s( 56.69%)p 0.58( 32.77%)d 0.19( 10.54%)
                                            0.0000  0.0163  0.7089  0.2183  0.1283
                                            0.0187 -0.4349  0.2703 -0.0043 -0.1050
                                           -0.1157 -0.0003 -0.1938 -0.0566  0.1800
                                            0.1019  0.0904 -0.2246  0.0633
    59. (0.00019) RY*( 5) C   3           s(  4.13%)p16.12( 66.56%)d 7.10( 29.31%)
                                            0.0000  0.0034  0.1972 -0.0190  0.0452
                                            0.0032 -0.0938  0.0543 -0.0006 -0.0365
                                           -0.0140 -0.0010  0.7532  0.2915  0.0433
                                           -0.5095 -0.1593 -0.0770  0.0197
    60. (0.00011) RY*( 6) C   3           s(  6.55%)p 7.89( 51.67%)d 6.38( 41.78%)
                                            0.0000  0.0145 -0.1273  0.1854 -0.1214
                                           -0.0007 -0.4112  0.1032  0.0097 -0.0490
                                            0.5781  0.0000  0.0160  0.0032 -0.6263
                                            0.0084 -0.0130 -0.1582  0.0150
    61. (0.00004) RY*( 7) C   3           s( 52.31%)p 0.34( 17.91%)d 0.57( 29.78%)
    62. (0.00001) RY*( 8) C   3           s( 13.98%)p 6.06( 84.71%)d 0.09(  1.31%)
    63. (0.00001) RY*( 9) C   3           s(  0.90%)p62.64( 56.34%)d47.55( 42.76%)
    64. (0.00000) RY*(10) C   3           s(  0.02%)p99.99( 48.75%)d99.99( 51.23%)
    65. (0.00000) RY*(11) C   3           s( 99.68%)p 0.00(  0.24%)d 0.00(  0.08%)
    66. (0.00000) RY*(12) C   3           s(  0.02%)p99.99( 64.99%)d99.99( 34.99%)
    67. (0.00001) RY*(13) C   3           s( 40.73%)p 0.04(  1.58%)d 1.42( 57.68%)
    68. (0.00001) RY*(14) C   3           s(  2.53%)p 0.25(  0.64%)d38.24( 96.83%)
    69. (0.00220) RY*( 1) S   4           s(  0.06%)p99.99( 12.25%)d99.99( 87.69%)
                                            0.0000  0.0000 -0.0004  0.0138  0.0192
                                            0.0002  0.0000  0.0015  0.0276  0.0162
                                            0.0000  0.0019  0.0086  0.0053  0.0000
                                           -0.0096  0.3458 -0.0418 -0.0068  0.9176
                                           -0.1835  0.0312 -0.0137
    70. (0.00138) RY*( 2) S   4           s(  2.25%)p20.79( 46.70%)d22.73( 51.05%)
                                            0.0000  0.0000  0.0045  0.1323  0.0322
                                            0.0625  0.0000  0.0413  0.2675  0.0119
                                            0.0000  0.0304  0.6241  0.0486  0.0000
                                           -0.0005 -0.0290 -0.0020 -0.0151 -0.0256
                                            0.0224  0.7125  0.0389
    71. (0.00089) RY*( 3) S   4           s(  2.60%)p13.11( 34.13%)d24.31( 63.27%)
                                            0.0000  0.0000  0.0022  0.1127 -0.1084
                                            0.0397  0.0000  0.1009  0.5057  0.0951
                                            0.0000  0.0246 -0.0375  0.0581  0.0000
                                            0.0002  0.2445 -0.0333 -0.6865 -0.1620
                                           -0.2777 -0.1983  0.1371
    72. (0.00077) RY*( 4) S   4           s(  0.59%)p56.97( 33.49%)d99.99( 65.92%)
                                            0.0000  0.0000 -0.0011 -0.0399  0.0621
                                           -0.0207  0.0000 -0.0432 -0.2025 -0.0017
                                            0.0000 -0.0087  0.0295 -0.0540  0.0000
                                            0.0082  0.5366 -0.0114  0.3134 -0.3313
                                           -0.6601  0.1042 -0.0682
    73. (0.00025) RY*( 5) S   4           s( 13.27%)p 2.38( 31.52%)d 4.16( 55.20%)
                                            0.0000  0.0000 -0.0095 -0.1583  0.3256
                                           -0.0392  0.0000  0.0344 -0.4034 -0.0110
                                            0.0000 -0.0131 -0.3644  0.1240  0.0000
                                           -0.0003  0.0166  0.0510 -0.5221 -0.0153
                                            0.0076  0.4801 -0.2204
    74. (0.00018) RY*( 6) S   4           s( 23.10%)p 2.48( 57.17%)d 0.85( 19.73%)
                                            0.0000  0.0000  0.0216  0.4751 -0.0246
                                            0.0645  0.0000 -0.0291 -0.6044  0.1070
                                            0.0000  0.0421  0.3511  0.2526  0.0000
                                            0.0028 -0.0073  0.0720 -0.2146  0.0145
                                           -0.0349 -0.2133  0.3230
    75. (0.00011) RY*( 7) S   4           s( 83.45%)p 0.14( 11.90%)d 0.06(  4.66%)
                                            0.0000  0.0000  0.0043  0.4009  0.8203
                                            0.0292  0.0000 -0.0118  0.2237  0.0698
                                            0.0000  0.0176 -0.0696  0.0658  0.0000
                                           -0.0021 -0.0112 -0.2330  0.1487 -0.0249
                                            0.0368 -0.1399 -0.0540
    76. (0.00008) RY*( 8) S   4           s(  3.23%)p28.74( 92.74%)d 1.25(  4.04%)
    77. (0.00003) RY*( 9) S   4           s(  3.49%)p27.14( 94.71%)d 0.52(  1.80%)
    78. (0.00001) RY*(10) S   4           s( 63.13%)p 0.41( 25.86%)d 0.17( 11.01%)
    79. (0.00001) RY*(11) S   4           s(  3.97%)p23.09( 91.73%)d 1.08(  4.30%)
    80. (0.00000) RY*(12) S   4           s(  0.01%)p 1.00( 55.06%)d 0.82( 44.94%)
    81. (0.00000) RY*(13) S   4           s( 98.86%)p 0.01(  0.90%)d 0.00(  0.24%)
    82. (0.00000) RY*(14) S   4           s(  1.65%)p 8.36( 13.81%)d51.16( 84.53%)
    83. (0.00018) RY*( 1) H   5           s(100.00%)
                                           -0.0025  1.0000
    84. (0.00031) RY*( 1) H   6           s(100.00%)
                                           -0.0039  1.0000
    85. (0.00231) RY*( 1) N   7           s(  0.12%)p99.99( 99.17%)d 6.23(  0.72%)
                                            0.0000 -0.0054  0.0289  0.0159 -0.0063
                                            0.0059 -0.7444  0.0411  0.0363 -0.6586
                                           -0.0224  0.0003 -0.0150  0.0062 -0.0314
                                           -0.0010  0.0041 -0.0457 -0.0640
    86. (0.00115) RY*( 2) N   7           s(  0.15%)p99.99( 97.79%)d13.60(  2.06%)
                                            0.0000 -0.0111  0.0187 -0.0027  0.0322
                                            0.0283  0.6358 -0.1653 -0.0141 -0.7342
                                            0.0709 -0.0029 -0.0343 -0.0081 -0.1016
                                            0.0122 -0.0109  0.0991  0.0142
    87. (0.00049) RY*( 3) N   7           s(  0.47%)p99.99( 98.78%)d 1.60(  0.75%)
                                            0.0000  0.0014 -0.0040  0.0620  0.0286
                                           -0.0035 -0.0245 -0.0972  0.0010  0.0467
                                           -0.0565 -0.0234 -0.9852 -0.0357 -0.0213
                                           -0.0121 -0.0829  0.0011  0.0041
    88. (0.00029) RY*( 4) N   7           s( 67.37%)p 0.18( 11.94%)d 0.31( 20.69%)
[...]
   7. BD (   1) C   2 - N   7        / 27. RY*(   2) C   1                    0.39    2.26    0.038
   7. BD (   1) C   2 - N   7        / 54. RY*(   1) C   3                    0.41    1.77    0.034
   7. BD (   1) C   2 - N   7        /115. BD*(   1) C   1 - N   7            0.37    1.33    0.028
   7. BD (   1) C   2 - N   7        /116. BD*(   1) C   1 - N   8            3.46    1.20    0.081
   7. BD (   1) C   2 - N   7        /118. BD*(   1) C   2 - C   3            0.30    1.37    0.026
   7. BD (   1) C   2 - N   7        /124. BD*(   1) C   3 - H   6            1.08    1.27    0.047
   8. BD (   2) C   2 - N   7        / 28. RY*(   3) C   1                    0.32    1.22    0.027
   8. BD (   2) C   2 - N   7        / 29. RY*(   4) C   1                    0.93    1.97    0.059
   8. BD (   2) C   2 - N   7        / 56. RY*(   3) C   3                    0.39    1.70    0.035
   8. BD (   2) C   2 - N   7        /117. BD*(   2) C   1 - N   8           27.23    0.22    0.101
   8. BD (   2) C   2 - N   7        /123. BD*(   2) C   3 - S   4           15.39    0.22    0.075
   9. BD (   1) C   3 - S   4        / 40. RY*(   1) C   2                    0.83    1.44    0.044
   9. BD (   1) C   3 - S   4        /115. BD*(   1) C   1 - N   7            0.40    1.20    0.028
   9. BD (   1) C   3 - S   4        /116. BD*(   1) C   1 - N   8            2.31    1.06    0.063
   9. BD (   1) C   3 - S   4        /119. BD*(   1) C   2 - H   5            2.10    1.13    0.062
   9. BD (   1) C   3 - S   4        /120. BD*(   1) C   2 - N   7            0.76    1.12    0.037
  10. BD (   2) C   3 - S   4        / 30. RY*(   5) C   1                    0.28    1.95    0.030
  10. BD (   2) C   3 - S   4        / 43. RY*(   4) C   2                    0.29    1.40    0.026
  10. BD (   2) C   3 - S   4        /117. BD*(   2) C   1 - N   8           10.76    0.24    0.066
  10. BD (   2) C   3 - S   4        /121. BD*(   2) C   2 - N   7            6.93    0.30    0.058
  11. BD (   1) C   3 - H   6        / 41. RY*(   2) C   2                    0.61    1.63    0.040
  11. BD (   1) C   3 - H   6        / 68. RY*(   1) S   4                    0.26    1.29    0.023
  11. BD (   1) C   3 - H   6        /118. BD*(   1) C   2 - C   3            0.89    1.15    0.040
  11. BD (   1) C   3 - H   6        /120. BD*(   1) C   2 - N   7            1.62    1.03    0.052
  12. BD (   1) N   8 - H   9        / 28. RY*(   3) C   1                    0.46    1.61    0.034
  12. BD (   1) N   8 - H   9        /114. BD*(   1) C   1 - S   4            2.74    0.84    0.062
  12. BD (   1) N   8 - H   9        /117. BD*(   2) C   1 - N   8            0.84    0.61    0.030
  13. BD (   1) N   8 - H  10        / 26. RY*(   1) C   1                    0.29    1.43    0.026
  13. BD (   1) N   8 - H  10        / 28. RY*(   3) C   1                    0.80    1.62    0.046
  13. BD (   1) N   8 - H  10        /115. BD*(   1) C   1 - N   7            2.41    1.23    0.069
  13. BD (   1) N   8 - H  10        /117. BD*(   2) C   1 - N   8            1.08    0.62    0.035
  14. CR (   1) C   1                / 85. RY*(   2) N   7                    0.57   11.22    0.101
  14. CR (   1) C   1                /101. RY*(   4) N   8                    0.25   11.10    0.067
  14. CR (   1) C   1                /114. BD*(   1) C   1 - S   4            0.31   10.37    0.073
  14. CR (   1) C   1                /120. BD*(   1) C   2 - N   7            0.51   10.66    0.093
  14. CR (   1) C   1                /126. BD*(   1) N   8 - H  10            0.27   10.64    0.068
  15. CR (   1) C   2                / 54. RY*(   1) C   3                    0.25   11.10    0.067
  15. CR (   1) C   2                / 55. RY*(   2) C   3                    1.06   11.00    0.136
  15. CR (   1) C   2                /115. BD*(   1) C   1 - N   7            0.37   10.66    0.080
  15. CR (   1) C   2                /118. BD*(   1) C   2 - C   3            0.47   10.70    0.090
  15. CR (   1) C   2                /124. BD*(   1) C   3 - H   6            0.43   10.59    0.086
  16. CR (   1) C   3                / 40. RY*(   1) C   2                    0.52   10.91    0.095
  16. CR (   1) C   3                / 41. RY*(   2) C   2                    0.88   11.19    0.126
  16. CR (   1) C   3                / 83. RY*(   1) H   6                    0.34   10.68    0.076
  16. CR (   1) C   3                /118. BD*(   1) C   2 - C   3            0.52   10.71    0.095
  16. CR (   1) C   3                /119. BD*(   1) C   2 - H   5            0.35   10.61    0.077
  16. CR (   1) C   3                /122. BD*(   1) C   3 - S   4            0.43   10.33    0.085
  18. CR (   2) S   4                / 26. RY*(   1) C   1                    0.84    9.64    0.114
  18. CR (   2) S   4                / 54. RY*(   1) C   3                    0.69    9.88    0.104
  18. CR (   2) S   4                /115. BD*(   1) C   1 - N   7            0.26    9.44    0.063
  18. CR (   2) S   4                /116. BD*(   1) C   1 - N   8            0.44    9.31    0.081
  18. CR (   2) S   4                /124. BD*(   1) C   3 - H   6            0.29    9.38    0.066
  22. CR (   1) N   7                / 26. RY*(   1) C   1                    1.95   14.90    0.216
  22. CR (   1) N   7                / 40. RY*(   1) C   2                    1.01   14.93    0.156
  22. CR (   1) N   7                /114. BD*(   1) C   1 - S   4            0.30   14.32    0.085
  22. CR (   1) N   7                /116. BD*(   1) C   1 - N   8            0.37   14.56    0.093
  23. CR (   1) N   8                / 28. RY*(   3) C   1                    1.45   15.18    0.187
  23. CR (   1) N   8                / 29. RY*(   4) C   1                    0.33   15.93    0.092
  23. CR (   1) N   8                /114. BD*(   1) C   1 - S   4            0.29   14.41    0.084
  23. CR (   1) N   8                /115. BD*(   1) C   1 - N   7            0.29   14.79    0.083
  23. CR (   1) N   8                /117. BD*(   2) C   1 - N   8            1.16   14.18    0.171
  24. LP (   1) S   4                / 26. RY*(   1) C   1                    1.03    1.42    0.048
  24. LP (   1) S   4                / 54. RY*(   1) C   3                    0.65    1.66    0.041
  24. LP (   1) S   4                /115. BD*(   1) C   1 - N   7            1.55    1.22    0.055
  24. LP (   1) S   4                /118. BD*(   1) C   2 - C   3            0.49    1.26    0.031
  25. LP (   1) N   7                / 26. RY*(   1) C   1                    2.01    1.12    0.061
  25. LP (   1) N   7                / 27. RY*(   2) C   1                    0.93    1.84    0.054
  25. LP (   1) N   7                / 40. RY*(   1) C   2                    1.80    1.15    0.059
  25. LP (   1) N   7                /114. BD*(   1) C   1 - S   4            8.02    0.54    0.083
  25. LP (   1) N   7                /116. BD*(   1) C   1 - N   8            1.40    0.78    0.043
  25. LP (   1) N   7                /118. BD*(   1) C   2 - C   3            2.71    0.95    0.066
  25. LP (   1) N   7                /119. BD*(   1) C   2 - H   5            0.70    0.85    0.031
  25. LP (   1) N   7                /125. BD*(   1) N   8 - H   9            0.33    0.82    0.021
 114. BD*(   1) C   1 - S   4        / 31. RY*(   6) C   1                    0.25    1.13    0.104
 114. BD*(   1) C   1 - S   4        / 68. RY*(   1) S   4                    0.62    0.56    0.114
 114. BD*(   1) C   1 - S   4        / 69. RY*(   2) S   4                    0.88    0.62    0.144
 114. BD*(   1) C   1 - S   4        / 79. RY*(  12) S   4                    0.36    0.15    0.046
 114. BD*(   1) C   1 - S   4        /122. BD*(   1) C   3 - S   4            0.88    0.03    0.030
 117. BD*(   2) C   1 - N   8        / 30. RY*(   5) C   1                    0.35    1.71    0.093
 117. BD*(   2) C   1 - N   8        / 99. RY*(   2) N   8                    0.45    0.67    0.067
 117. BD*(   2) C   1 - N   8        /121. BD*(   2) C   2 - N   7            8.12    0.06    0.069
 121. BD*(   2) C   2 - N   7        / 44. RY*(   5) C   2                    0.27    1.62    0.104
 123. BD*(   2) C   3 - S   4        / 59. RY*(   6) C   3                    0.39    0.77    0.069
 123. BD*(   2) C   3 - S   4        / 71. RY*(   4) S   4                    0.37    0.85    0.072
 123. BD*(   2) C   3 - S   4        /121. BD*(   2) C   2 - N   7           11.62    0.07    0.089


 Natural Bond Orbitals (Summary):

                                                            Principal Delocalizations
           NBO                        Occupancy    Energy   (geminal,vicinal,remote)
 ====================================================================================
 Molecular unit  1  (C3H4N2S)
     1. BD (   1) C   1 - S   4          0.98977    -0.87974  125(v),124(v),84(v),98(v)
                                                    55(v),85(v),118(v),119(r)
     2. BD (   1) C   1 - N   7          0.99418    -1.10472  41(v),119(v),126(v),116(g)
                                                    120(g),26(g)
     3. BD (   1) C   1 - N   8          0.99684    -1.07133  120(v),117(g),115(g),84(v)
     4. BD (   2) C   1 - N   8          0.93278    -0.56504  121(v),123(v),86(v),70(v)
     5. BD (   1) C   2 - C   3          0.99534    -0.97829  124(g),85(v),119(g),116(r)
     6. BD (   1) C   2 - H   5          0.98914    -0.75237  122(v),115(v),118(g),55(v)
     7. BD (   1) C   2 - N   7          0.98924    -0.99874  116(v),26(v),124(v),54(v)
                                                    27(v),115(g),118(g)
     8. BD (   2) C   2 - N   7          0.84358    -0.50102  117(v),123(v),29(v),56(v)
                                                    28(v)
     9. BD (   1) C   3 - S   4          0.98815    -0.86761  116(v),119(v),40(v),120(v)
                                                    115(v)
    10. BD (   2) C   3 - S   4          0.94915    -0.51447  117(v),121(v),43(v),30(v)
    11. BD (   1) C   3 - H   6          0.99278    -0.78173  120(v),118(g),41(v),68(v)
    12. BD (   1) N   8 - H   9          0.99172    -0.88595  114(v),117(g),28(v)
    13. BD (   1) N   8 - H  10          0.99365    -0.89907  115(v),117(g),28(v),26(v)
    14. CR (   1) C   1                  0.99965   -10.41231  85(v),120(v),114(g),126(v)
                                                    101(v)
    15. CR (   1) C   2                  0.99955   -10.32574  55(v),118(g),124(v),115(v)
                                                    54(v)
    16. CR (   1) C   3                  0.99954   -10.34120  41(v),118(g),40(v),122(g)
                                                    119(v),83(v)
    17. CR (   1) S   4                  1.00000   -87.97497   
    18. CR (   2) S   4                  0.99967    -9.10975  26(v),54(v),116(v),124(v)
                                                    115(v)
    19. CR (   3) S   4                  0.99993    -6.16252   
    20. CR (   4) S   4                  0.99992    -6.15946   
    21. CR (   5) S   4                  0.99995    -6.15747   
    22. CR (   1) N   7                  0.99965   -14.36447  26(v),40(v),116(v),114(v)
    23. CR (   1) N   8                  0.99967   -14.45685  28(v),117(g),29(v),114(v)
                                                    115(v)
    24. LP (   1) S   4                  0.99202    -0.88936  115(v),26(v),54(v),118(v)
    25. LP (   1) N   7                  0.94438    -0.58260  114(v),118(v),26(v),40(v)
                                                    116(v),27(v),119(v),125(r)
    26. RY*(   1) C   1                  0.00473     0.53473   
    27. RY*(   2) C   1                  0.00247     1.25759   
    28. RY*(   3) C   1                  0.00172     0.71926   
    29. RY*(   4) C   1                  0.00101     1.47019   
    30. RY*(   5) C   1                  0.00067     1.43131   
    31. RY*(   6) C   1                  0.00055     1.08784   
    32. RY*(   7) C   1                  0.00023     1.66915   
    33. RY*(   8) C   1                  0.00016     0.56471   
    34. RY*(   9) C   1                  0.00004     2.98930   
    35. RY*(  10) C   1                  0.00004     0.65395   
    36. RY*(  11) C   1                  0.00000     0.65084   
    37. RY*(  12) C   1                  0.00000     0.09631   
    38. RY*(  13) C   1                  0.00001     1.53670   
    39. RY*(  14) C   1                  0.00001     1.94555   
    40. RY*(   1) C   2                  0.00361     0.56814   
    41. RY*(   2) C   2                  0.00254     0.85218   
    42. RY*(   3) C   2                  0.00044     0.92470   
    43. RY*(   4) C   2                  0.00024     0.88974   
    44. RY*(   5) C   2                  0.00015     1.40281   
    45. RY*(   6) C   2                  0.00012     0.93427   
    46. RY*(   7) C   2                  0.00006     1.80513   
    47. RY*(   8) C   2                  0.00004     2.86355   
    48. RY*(   9) C   2                  0.00000     0.14994   
    49. RY*(  10) C   2                  0.00000     1.16392   
    50. RY*(  11) C   2                  0.00001     0.99680   
    51. RY*(  12) C   2                  0.00000     1.47857   
    52. RY*(  13) C   2                  0.00001     0.63652   
    53. RY*(  14) C   2                  0.00000     2.32045   
    54. RY*(   1) C   3                  0.00157     0.76959   
    55. RY*(   2) C   3                  0.00103     0.67637   
    56. RY*(   3) C   3                  0.00047     1.19961   
    57. RY*(   4) C   3                  0.00025     0.65406   
    58. RY*(   5) C   3                  0.00011     1.07385   
    59. RY*(   6) C   3                  0.00006     0.48526   
    60. RY*(   7) C   3                  0.00003     1.16686   
    61. RY*(   8) C   3                  0.00001     0.41771   
    62. RY*(   9) C   3                  0.00001     1.93997   
    63. RY*(  10) C   3                  0.00000     3.42905   
    64. RY*(  11) C   3                  0.00001     0.88927   
    65. RY*(  12) C   3                  0.00000     1.23802   
    66. RY*(  13) C   3                  0.00001     1.41688   
    67. RY*(  14) C   3                  0.00000     0.71069   
    68. RY*(   1) S   4                  0.00139     0.51021   
    69. RY*(   2) S   4                  0.00097     0.57636   
    70. RY*(   3) S   4                  0.00077     0.45210   
    71. RY*(   4) S   4                  0.00068     0.56773   
    72. RY*(   5) S   4                  0.00025     0.59301   
    73. RY*(   6) S   4                  0.00018     0.28185   
    74. RY*(   7) S   4                  0.00010     0.24868   
    75. RY*(   8) S   4                  0.00007     0.10175   
    76. RY*(   9) S   4                  0.00000     0.07977   
    77. RY*(  10) S   4                  0.00000     3.64198   
    78. RY*(  11) S   4                  0.00001     0.46478   
    79. RY*(  12) S   4                  0.00001     0.10568   
    80. RY*(  13) S   4                  0.00000     0.45255   
    81. RY*(  14) S   4                  0.00001     0.83047   
    82. RY*(   1) H   5                  0.00017     0.35820   
    83. RY*(   1) H   6                  0.00029     0.33940   
    84. RY*(   1) N   7                  0.00231     0.60687   
    85. RY*(   2) N   7                  0.00117     0.81209   
    86. RY*(   3) N   7                  0.00048     0.55074   
    87. RY*(   4) N   7                  0.00029     0.89422   
    88. RY*(   5) N   7                  0.00014     1.37892   
    89. RY*(   6) N   7                  0.00011     1.05829   
    90. RY*(   7) N   7                  0.00008     1.57780   
    91. RY*(   8) N   7                  0.00003     1.53350   
    92. RY*(   9) N   7                  0.00001     1.42399   
    93. RY*(  10) N   7                  0.00001     1.91512   
    94. RY*(  11) N   7                  0.00001     0.49898   
    95. RY*(  12) N   7                  0.00000     1.55860   
    96. RY*(  13) N   7                  0.00000     0.56843   
    97. RY*(  14) N   7                  0.00000     3.40280   
    98. RY*(   1) N   8                  0.00162     0.74840   
    99. RY*(   2) N   8                  0.00052     0.39044   
   100. RY*(   3) N   8                  0.00038     1.11341   
   101. RY*(   4) N   8                  0.00012     0.68298   
   102. RY*(   5) N   8                  0.00004     0.78852   
   103. RY*(   6) N   8                  0.00002     0.34982   
   104. RY*(   7) N   8                  0.00001     0.79622   
   105. RY*(   8) N   8                  0.00000     3.39417   
   106. RY*(   9) N   8                  0.00000     0.42510   
   107. RY*(  10) N   8                  0.00001     1.66590   
   108. RY*(  11) N   8                  0.00000     1.61809   
   109. RY*(  12) N   8                  0.00001     1.57807   
   110. RY*(  13) N   8                  0.00001     1.91236   
   111. RY*(  14) N   8                  0.00001     1.83041   
   112. RY*(   1) H   9                  0.00101     0.41279   
   113. RY*(   1) H  10                  0.00028     0.39094   
   114. BD*(   1) C   1 - S   4          0.04137    -0.04662   
   115. BD*(   1) C   1 - N   7          0.01110     0.33271   
   116. BD*(   1) C   1 - N   8          0.01597     0.19652   
   117. BD*(   2) C   1 - N   8          0.10733    -0.27665  123(v),121(v),99(g),30(g)
   118. BD*(   1) C   2 - C   3          0.01140     0.37012   
   119. BD*(   1) C   2 - H   5          0.00855     0.26411   
   120. BD*(   1) C   2 - N   7          0.00618     0.25087   
   121. BD*(   2) C   2 - N   7          0.06372    -0.21345   
   122. BD*(   1) C   3 - S   4          0.00751    -0.01436   
   123. BD*(   2) C   3 - S   4          0.09831    -0.28229   
   124. BD*(   1) C   3 - H   6          0.00491     0.26713   
   125. BD*(   1) N   8 - H   9          0.00457     0.23393   
   126. BD*(   1) N   8 - H  10          0.00281     0.22611   
       -------------------------------
              Total Lewis   24.58027  ( 98.3211%)
        Valence non-Lewis    0.38374  (  1.5350%)
        Rydberg non-Lewis    0.03599  (  0.1440%)
       -------------------------------
            Total unit  1   25.00000  (100.0000%)
           Charge unit  1    1.00000
 1\1\GINC-LOCALHOST\SP\UB3LYP\6-31+G(d)\C3H4N2S1(1+,2)\PVBHARATAM\14-Ma
 r-2001\0\\# b3lyp/6-31+g(d) pop=nbo\\ATZ+1\\1,2\C,0,0.779813,0.211567,
 0.001781\C,0,-1.211308,1.164614,0.003329\C,0,-1.648098,-0.124763,0.008
 569\S,0,-0.272995,-1.20905,-0.006852\H,0,-1.858035,2.03491,0.008629\H,
 0,-2.66025,-0.50439,0.025868\N,0,0.156324,1.356215,0.003751\N,0,2.1520
 24,0.083879,-0.076106\H,0,2.641637,0.948989,0.125364\H,0,2.563692,-0.7
 23881,0.374182\\Version=EM64L-G09RevB.01\State=2-A\HF=-624.1171417\S2=
 0.757783\S2-1=0.\S2A=0.750021\RMSD=8.191e-09\Dipole=0.2465113,-0.26523
 28,0.3599023\Quadrupole=11.8002567,-3.7109581,-8.0892986,-1.407895,1.9
 36587,-0.2573973\PG=C01 [X(C3H4N2S1)]\\@


 THE VALUE OF PHILOSOPHY IS, IN FACT, TO BE SOUGHT LARGELY IN ITS
 VERY UNCERTAINTY.  THE MAN WHO HAS NO TINCTURE OF PHILOSOPHY GOES
 THROUGH LIFE IMPRISONED IN THE PREJUDICES DERIVED FROM COMMON SENSE,
 FROM THE HABITUAL BELIEFS OF HIS AGE OR HIS NATION, AND FROM
 CONVICTIONS WHICH HAVE GROWN UP IN HIS MIND WITHOUT THE CO-OPERATION
 OR CONSENT OF HIS DELIBERATE REASON.  TO SUCH A MAN THE WORLD TENDS
 TO BE DEFINITE, FINITE, OBVIOUS; COMMON OBJECTS ROUSE NO QUESTIONS,
 AND UNFAMILIAR POSSIBILITIES ARE CONTEMPTUOUSLY REJECTED.

                             -- BERTRAND RUSSELL
 Job cpu time:  0 days  0 hours  1 minutes 40.4 seconds.
 File lengths (MBytes):  RWF=     16 Int=      0 D2E=      0 Chk=      2 Scr=      1
 Normal termination of Gaussian 09 at Wed Mar 14 21:56:40 2001.
