 Entering Gaussian System, Link 0=g09
 Input=ATZ.gjf
 Output=ATZ.log
 Initial command:
 /home/pvbharatam/guass/g09/l1.exe /home/pvbharatam/GAUSS_SCRDIR/Gau-26923.inp -scrdir=/home/pvbharatam/GAUSS_SCRDIR/
 Entering Link 1 = /home/pvbharatam/guass/g09/l1.exe PID=     26924.
  
 Copyright (c) 1988,1990,1992,1993,1995,1998,2003,2009,2010,
            Gaussian, Inc.  All Rights Reserved.
  
 This is part of the Gaussian(R) 09 program.  It is based on
 the Gaussian(R) 03 system (copyright 2003, Gaussian, Inc.),
 the Gaussian(R) 98 system (copyright 1998, Gaussian, Inc.),
 the Gaussian(R) 94 system (copyright 1995, Gaussian, Inc.),
 the Gaussian 92(TM) system (copyright 1992, Gaussian, Inc.),
 the Gaussian 90(TM) system (copyright 1990, Gaussian, Inc.),
 the Gaussian 88(TM) system (copyright 1988, Gaussian, Inc.),
 the Gaussian 86(TM) system (copyright 1986, Carnegie Mellon
 University), and the Gaussian 82(TM) system (copyright 1983,
 Carnegie Mellon University). Gaussian is a federally registered
 trademark of Gaussian, Inc.
  
 This software contains proprietary and confidential information,
 including trade secrets, belonging to Gaussian, Inc.
  
 This software is provided under written license and may be
 used, copied, transmitted, or stored only in accord with that
 written license.
  
 The following legend is applicable only to US Government
 contracts under FAR:
  
                    RESTRICTED RIGHTS LEGEND
  
 Use, reproduction and disclosure by the US Government is
 subject to restrictions as set forth in subparagraphs (a)
 and (c) of the Commercial Computer Software - Restricted
 Rights clause in FAR 52.227-19.
  
 Gaussian, Inc.
 340 Quinnipiac St., Bldg. 40, Wallingford CT 06492
  
  
 ---------------------------------------------------------------
 Warning -- This program may not be used in any manner that
 competes with the business of Gaussian, Inc. or will provide
 assistance to any competitor of Gaussian, Inc.  The licensee
 of this program is prohibited from giving any competitor of
 Gaussian, Inc. access to this program.  By using this program,
 the user acknowledges that Gaussian, Inc. is engaged in the
 business of creating and licensing software in the field of
 computational chemistry and represents and warrants to the
 licensee that it is not a competitor of Gaussian, Inc. and that
 it will not use this program in any manner prohibited above.
 ---------------------------------------------------------------
  

 Cite this work as:
 Gaussian 09, Revision B.01,
 M. J. Frisch, G. W. Trucks, H. B. Schlegel, G. E. Scuseria, 
 M. A. Robb, J. R. Cheeseman, G. Scalmani, V. Barone, B. Mennucci, 
 G. A. Petersson, H. Nakatsuji, M. Caricato, X. Li, H. P. Hratchian, 
 A. F. Izmaylov, J. Bloino, G. Zheng, J. L. Sonnenberg, M. Hada, 
 M. Ehara, K. Toyota, R. Fukuda, J. Hasegawa, M. Ishida, T. Nakajima, 
 Y. Honda, O. Kitao, H. Nakai, T. Vreven, J. A. Montgomery, Jr., 
 J. E. Peralta, F. Ogliaro, M. Bearpark, J. J. Heyd, E. Brothers, 
 K. N. Kudin, V. N. Staroverov, T. Keith, R. Kobayashi, J. Normand, 
 K. Raghavachari, A. Rendell, J. C. Burant, S. S. Iyengar, J. Tomasi, 
 M. Cossi, N. Rega, J. M. Millam, M. Klene, J. E. Knox, J. B. Cross, 
 V. Bakken, C. Adamo, J. Jaramillo, R. Gomperts, R. E. Stratmann, 
 O. Yazyev, A. J. Austin, R. Cammi, C. Pomelli, J. W. Ochterski, 
 R. L. Martin, K. Morokuma, V. G. Zakrzewski, G. A. Voth, 
 P. Salvador, J. J. Dannenberg, S. Dapprich, A. D. Daniels, 
 O. Farkas, J. B. Foresman, J. V. Ortiz, J. Cioslowski, 
 and D. J. Fox, Gaussian, Inc., Wallingford CT, 2010.
 
 ******************************************
 Gaussian 09:  EM64L-G09RevB.01 12-Aug-2010
                14-Mar-2001 
 ******************************************
 %nprocshared=8
 Will use up to    8 processors via shared memory.
 %mem=8GB
 %chk=ATZ.chk
 ------------------------------------------
 # opt freq=noraman b3lyp/6-31+g(d) pop=nbo
 ------------------------------------------
 1/14=-1,18=20,19=15,26=3,38=1/1,3;
 2/9=110,12=2,17=6,18=5,40=1/2;
 3/5=1,6=6,7=11,11=2,16=1,25=1,30=1,71=1,74=-5/1,2,3;
 4//1;
 5/5=2,38=5/2;
 6/7=2,8=2,9=2,10=2,28=1/1,7;
 7//1,2,3,16;
 1/14=-1,18=20,19=15/3(2);
 2/9=110/2;
 99//99;
 2/9=110/2;
 3/5=1,6=6,7=11,11=2,16=1,25=1,30=1,71=1,74=-5/1,2,3;
 4/5=5,16=3/1;
 5/5=2,38=5/2;
 7//1,2,3,16;
 1/14=-1,18=20,19=15/3(-5);
 2/9=110/2;
 6/7=2,8=2,9=2,10=2,19=2,28=1/1,7;
 99/9=1/99;
 ---
 ATZ
 ---
 Symbolic Z-matrix:
 Charge =  0 Multiplicity = 1
 C                     0.77966   0.21157   0.00171 
 C                    -1.21145   1.16451   0.00361 
 C                    -1.64792  -0.1251    0.00853 
 S                    -0.27291  -1.20887  -0.0071 
 H                    -1.85828   2.03467   0.00913 
 H                    -2.66018  -0.50449   0.02573 
 N                     0.15632   1.35629   0.00353 
 N                     2.15185   0.08382  -0.07549 
 H                     2.64227   0.94891   0.12455 
 H                     2.56377  -0.72387   0.37489 
 

 GradGradGradGradGradGradGradGradGradGradGradGradGradGradGradGradGradGrad
 Berny optimization.
 Initialization pass.
                           ----------------------------
                           !    Initial Parameters    !
                           ! (Angstroms and Degrees)  !
 --------------------------                            --------------------------
 ! Name  Definition              Value          Derivative Info.                !
 --------------------------------------------------------------------------------
 ! R1    R(1,4)                  1.7679         estimate D2E/DX2                !
 ! R2    R(1,7)                  1.3034         estimate D2E/DX2                !
 ! R3    R(1,8)                  1.3803         estimate D2E/DX2                !
 ! R4    R(2,3)                  1.3615         estimate D2E/DX2                !
 ! R5    R(2,5)                  1.0843         estimate D2E/DX2                !
 ! R6    R(2,7)                  1.3811         estimate D2E/DX2                !
 ! R7    R(3,4)                  1.7508         estimate D2E/DX2                !
 ! R8    R(3,6)                  1.0812         estimate D2E/DX2                !
 ! R9    R(8,9)                  1.0144         estimate D2E/DX2                !
 ! R10   R(8,10)                 1.0124         estimate D2E/DX2                !
 ! A1    A(4,1,7)              114.891          estimate D2E/DX2                !
 ! A2    A(4,1,8)              121.1469         estimate D2E/DX2                !
 ! A3    A(7,1,8)              123.8338         estimate D2E/DX2                !
 ! A4    A(3,2,5)              124.6743         estimate D2E/DX2                !
 ! A5    A(3,2,7)              116.6801         estimate D2E/DX2                !
 ! A6    A(5,2,7)              118.643          estimate D2E/DX2                !
 ! A7    A(2,3,4)              109.5434         estimate D2E/DX2                !
 ! A8    A(2,3,6)              129.2424         estimate D2E/DX2                !
 ! A9    A(4,3,6)              121.2131         estimate D2E/DX2                !
 ! A10   A(1,4,3)               88.2919         estimate D2E/DX2                !
 ! A11   A(1,7,2)              110.5881         estimate D2E/DX2                !
 ! A12   A(1,8,9)              112.9965         estimate D2E/DX2                !
 ! A13   A(1,8,10)             116.9656         estimate D2E/DX2                !
 ! A14   A(9,8,10)             113.3265         estimate D2E/DX2                !
 ! D1    D(7,1,4,3)             -0.5476         estimate D2E/DX2                !
 ! D2    D(8,1,4,3)           -176.583          estimate D2E/DX2                !
 ! D3    D(4,1,7,2)              0.2513         estimate D2E/DX2                !
 ! D4    D(8,1,7,2)            176.1662         estimate D2E/DX2                !
 ! D5    D(4,1,8,9)           -168.4853         estimate D2E/DX2                !
 ! D6    D(4,1,8,10)           -34.1744         estimate D2E/DX2                !
 ! D7    D(7,1,8,9)             15.845          estimate D2E/DX2                !
 ! D8    D(7,1,8,10)           150.1558         estimate D2E/DX2                !
 ! D9    D(5,2,3,4)            179.8814         estimate D2E/DX2                !
 ! D10   D(5,2,3,6)             -0.5106         estimate D2E/DX2                !
 ! D11   D(7,2,3,4)             -0.7166         estimate D2E/DX2                !
 ! D12   D(7,2,3,6)            178.8913         estimate D2E/DX2                !
 ! D13   D(3,2,7,1)              0.3142         estimate D2E/DX2                !
 ! D14   D(5,2,7,1)            179.7538         estimate D2E/DX2                !
 ! D15   D(2,3,4,1)              0.6718         estimate D2E/DX2                !
 ! D16   D(6,3,4,1)           -178.9732         estimate D2E/DX2                !
 --------------------------------------------------------------------------------
 Trust Radius=3.00D-01 FncErr=1.00D-07 GrdErr=1.00D-06
 Number of steps in this run=     50 maximum allowed number of steps=    100.
 GradGradGradGradGradGradGradGradGradGradGradGradGradGradGradGradGradGrad

                          Input orientation:                          
 ---------------------------------------------------------------------
 Center     Atomic      Atomic             Coordinates (Angstroms)
 Number     Number       Type             X           Y           Z
 ---------------------------------------------------------------------
      1          6           0        0.779662    0.211569    0.001711
      2          6           0       -1.211446    1.164509    0.003609
      3          6           0       -1.647918   -0.125100    0.008528
      4         16           0       -0.272912   -1.208867   -0.007103
      5          1           0       -1.858278    2.034672    0.009126
      6          1           0       -2.660178   -0.504491    0.025734
      7          7           0        0.156322    1.356291    0.003530
      8          7           0        2.151852    0.083819   -0.075493
      9          1           0        2.642267    0.948911    0.124554
     10          1           0        2.563765   -0.723869    0.374888
 ---------------------------------------------------------------------
                    Distance matrix (angstroms):
                    1          2          3          4          5
     1  C    0.000000
     2  C    2.207399   0.000000
     3  C    2.450824   1.361478   0.000000
     4  S    1.767945   2.552229   1.750839   0.000000
     5  H    3.206632   1.084254   2.169992   3.610290   0.000000
     6  H    3.513662   2.210175   1.081159   2.489229   2.662831
     7  N    1.303436   1.381148   2.334486   2.600844   2.125758
     8  N    1.380285   3.533542   3.806436   2.748671   4.460284
     9  H    2.007003   3.861634   4.424099   3.629271   4.631102
    10  H    2.048738   4.237457   4.269780   2.903081   5.224729
                    6          7          8          9         10
     6  H    0.000000
     7  N    3.375748   0.000000
     8  N    4.848916   2.368031   0.000000
     9  H    5.498915   2.522009   1.014352   0.000000
    10  H    5.240192   3.203241   1.012361   1.693228   0.000000
 Stoichiometry    C3H4N2S
 Framework group  C1[X(C3H4N2S)]
 Deg. of freedom    24
 Full point group                 C1      NOp   1
 Largest Abelian subgroup         C1      NOp   1
 Largest concise Abelian subgroup C1      NOp   1
                         Standard orientation:                         
 ---------------------------------------------------------------------
 Center     Atomic      Atomic             Coordinates (Angstroms)
 Number     Number       Type             X           Y           Z
 ---------------------------------------------------------------------
      1          6           0        0.779662    0.211569    0.001711
      2          6           0       -1.211445    1.164510    0.003609
      3          6           0       -1.647918   -0.125099    0.008528
      4         16           0       -0.272912   -1.208867   -0.007103
      5          1           0       -1.858277    2.034673    0.009126
      6          1           0       -2.660178   -0.504490    0.025734
      7          7           0        0.156323    1.356291    0.003530
      8          7           0        2.151852    0.083818   -0.075493
      9          1           0        2.642268    0.948910    0.124554
     10          1           0        2.563765   -0.723870    0.374888
 ---------------------------------------------------------------------
 Rotational constants (GHZ):      5.2872416      3.3777425      2.0648869
 Standard basis: 6-31+G(d) (6D, 7F)
 There are   126 symmetry adapted basis functions of A   symmetry.
 Integral buffers will be    131072 words long.
 Raffenetti 2 integral format.
 Two-electron integral symmetry is turned on.
   126 basis functions,   232 primitive gaussians,   126 cartesian basis functions
    26 alpha electrons       26 beta electrons
       nuclear repulsion energy       277.3584096358 Hartrees.
 NAtoms=   10 NActive=   10 NUniq=   10 SFac= 1.00D+00 NAtFMM=   50 NAOKFM=F Big=F
 One-electron integrals computed using PRISM.
 NBasis=   126 RedAO= T  NBF=   126
 NBsUse=   126 1.00D-06 NBFU=   126
 Harris functional with IExCor=  402 diagonalized for initial guess.
 ExpMin= 4.05D-02 ExpMax= 2.19D+04 ExpMxC= 3.30D+03 IAcc=2 IRadAn=         0 AccDes= 0.00D+00
 HarFok:  IExCor=  402 AccDes= 0.00D+00 IRadAn=         0 IDoV= 1
 ScaDFX=  1.000000  1.000000  1.000000  1.000000
 FoFCou: FMM=F IPFlag=           0 FMFlag=      100000 FMFlg1=           0
         NFxFlg=           0 DoJE=T BraDBF=F KetDBF=T FulRan=T
         Omega=  0.000000  0.000000  1.000000  0.000000  0.000000 ICntrl=     500 IOpCl=  0
         NMat0=    1 NMatS0=    1 NMatT0=    0 NMatD0=    1 NMtDS0=    0 NMtDT0=    0
         I1Cent=           4 NGrid=           0.
 Petite list used in FoFCou.
 Initial guess orbital symmetries:
       Occupied  (A) (A) (A) (A) (A) (A) (A) (A) (A) (A) (A) (A)
                 (A) (A) (A) (A) (A) (A) (A) (A) (A) (A) (A) (A)
                 (A) (A)
       Virtual   (A) (A) (A) (A) (A) (A) (A) (A) (A) (A) (A) (A)
                 (A) (A) (A) (A) (A) (A) (A) (A) (A) (A) (A) (A)
                 (A) (A) (A) (A) (A) (A) (A) (A) (A) (A) (A) (A)
                 (A) (A) (A) (A) (A) (A) (A) (A) (A) (A) (A) (A)
                 (A) (A) (A) (A) (A) (A) (A) (A) (A) (A) (A) (A)
                 (A) (A) (A) (A) (A) (A) (A) (A) (A) (A) (A) (A)
                 (A) (A) (A) (A) (A) (A) (A) (A) (A) (A) (A) (A)
                 (A) (A) (A) (A) (A) (A) (A) (A) (A) (A) (A) (A)
                 (A) (A) (A) (A)
 The electronic state of the initial guess is 1-A.
 Requested convergence on RMS density matrix=1.00D-08 within 128 cycles.
 Requested convergence on MAX density matrix=1.00D-06.
 Requested convergence on             energy=1.00D-06.
 No special actions if energy rises.
 Keep R1 ints in memory in canonical form, NReq=33189382.
 SCF Done:  E(RB3LYP) =  -624.418751512     A.U. after   13 cycles
             Convg  =    0.5894D-08             -V/T =  2.0057

 **********************************************************************

            Population analysis using the SCF density.

 **********************************************************************

 Orbital symmetries:
       Occupied  (A) (A) (A) (A) (A) (A) (A) (A) (A) (A) (A) (A)
                 (A) (A) (A) (A) (A) (A) (A) (A) (A) (A) (A) (A)
                 (A) (A)
       Virtual   (A) (A) (A) (A) (A) (A) (A) (A) (A) (A) (A) (A)
                 (A) (A) (A) (A) (A) (A) (A) (A) (A) (A) (A) (A)
                 (A) (A) (A) (A) (A) (A) (A) (A) (A) (A) (A) (A)
                 (A) (A) (A) (A) (A) (A) (A) (A) (A) (A) (A) (A)
                 (A) (A) (A) (A) (A) (A) (A) (A) (A) (A) (A) (A)
                 (A) (A) (A) (A) (A) (A) (A) (A) (A) (A) (A) (A)
                 (A) (A) (A) (A) (A) (A) (A) (A) (A) (A) (A) (A)
                 (A) (A) (A) (A) (A) (A) (A) (A) (A) (A) (A) (A)
                 (A) (A) (A) (A)
 The electronic state is 1-A.
 Alpha  occ. eigenvalues --  -88.91921 -14.37388 -14.33382 -10.29390 -10.22413
 Alpha  occ. eigenvalues --  -10.21893  -7.97982  -5.94402  -5.94060  -5.93636
 Alpha  occ. eigenvalues --   -0.98593  -0.91277  -0.80029  -0.72952  -0.60571
 Alpha  occ. eigenvalues --   -0.58551  -0.52848  -0.50713  -0.45673  -0.42512
 Alpha  occ. eigenvalues --   -0.41342  -0.36848  -0.33053  -0.28384  -0.28328
 Alpha  occ. eigenvalues --   -0.22132
 Alpha virt. eigenvalues --   -0.02035  -0.01134  -0.00031   0.02103   0.03500
 Alpha virt. eigenvalues --    0.04401   0.04663   0.05671   0.06002   0.07414
 Alpha virt. eigenvalues --    0.09057   0.09198   0.09335   0.10244   0.12222
 Alpha virt. eigenvalues --    0.13662   0.13853   0.14522   0.15784   0.16645
 Alpha virt. eigenvalues --    0.17131   0.18740   0.19765   0.20423   0.20768
 Alpha virt. eigenvalues --    0.21819   0.24451   0.25854   0.27491   0.29631
 Alpha virt. eigenvalues --    0.30788   0.31321   0.31776   0.33506   0.39000
 Alpha virt. eigenvalues --    0.47796   0.48564   0.50166   0.51440   0.55196
 Alpha virt. eigenvalues --    0.60501   0.61547   0.65135   0.68302   0.71591
 Alpha virt. eigenvalues --    0.81742   0.82626   0.83175   0.83557   0.88170
 Alpha virt. eigenvalues --    0.90219   0.92188   0.92294   0.93739   0.96659
 Alpha virt. eigenvalues --    0.99582   1.00969   1.02369   1.04647   1.07417
 Alpha virt. eigenvalues --    1.07981   1.08959   1.13301   1.17429   1.20540
 Alpha virt. eigenvalues --    1.22600   1.32871   1.37062   1.41474   1.46718
 Alpha virt. eigenvalues --    1.53670   1.55424   1.63930   1.76077   1.79489
 Alpha virt. eigenvalues --    1.82942   1.86752   1.98829   2.05756   2.07329
 Alpha virt. eigenvalues --    2.19685   2.23123   2.25431   2.30885   2.31615
 Alpha virt. eigenvalues --    2.41011   2.46365   2.51652   2.57067   2.66240
 Alpha virt. eigenvalues --    2.72451   2.83356   2.98369   3.07871   3.93645
 Alpha virt. eigenvalues --    3.97331   4.16672   4.22635   4.38759   4.41559
          Condensed to atoms (all electrons):
              1          2          3          4          5          6
     1  C    5.832369   0.168590  -0.287378  -0.117878   0.037953   0.007177
     2  C    0.168590   5.124856   0.433098  -0.184207   0.411278  -0.005311
     3  C   -0.287378   0.433098   5.613534   0.265190  -0.086251   0.327207
     4  S   -0.117878  -0.184207   0.265190  15.915446  -0.007323  -0.020431
     5  H    0.037953   0.411278  -0.086251  -0.007323   0.530519  -0.001296
     6  H    0.007177  -0.005311   0.327207  -0.020431  -0.001296   0.466057
     7  N    0.186043   0.213829   0.040708   0.020620  -0.072626   0.008720
     8  N    0.196951   0.050084  -0.032999  -0.150609  -0.000608   0.000108
     9  H   -0.015800  -0.000672  -0.001628   0.015029  -0.000011   0.000002
    10  H   -0.002312   0.001694   0.003953  -0.007973   0.000002  -0.000002
              7          8          9         10
     1  C    0.186043   0.196951  -0.015800  -0.002312
     2  C    0.213829   0.050084  -0.000672   0.001694
     3  C    0.040708  -0.032999  -0.001628   0.003953
     4  S    0.020620  -0.150609   0.015029  -0.007973
     5  H   -0.072626  -0.000608  -0.000011   0.000002
     6  H    0.008720   0.000108   0.000002  -0.000002
     7  N    7.101031  -0.258346   0.001878   0.015386
     8  N   -0.258346   7.324358   0.292614   0.279578
     9  H    0.001878   0.292614   0.336046  -0.026371
    10  H    0.015386   0.279578  -0.026371   0.360466
 Mulliken atomic charges:
              1
     1  C   -0.005716
     2  C   -0.213241
     3  C   -0.275434
     4  S    0.272137
     5  H    0.188365
     6  H    0.217770
     7  N   -0.257243
     8  N   -0.701131
     9  H    0.398913
    10  H    0.375580
 Sum of Mulliken atomic charges =   0.00000
 Mulliken charges with hydrogens summed into heavy atoms:
              1
     1  C   -0.005716
     2  C   -0.024876
     3  C   -0.057664
     4  S    0.272137
     7  N   -0.257243
     8  N    0.073362
 Sum of Mulliken charges with hydrogens summed into heavy atoms =   0.00000
 Electronic spatial extent (au):  <R**2>=            581.5919
 Charge=              0.0000 electrons
 Dipole moment (field-independent basis, Debye):
    X=              0.7525    Y=             -1.1893    Z=              1.0016  Tot=              1.7274
 Quadrupole moment (field-independent basis, Debye-Ang):
   XX=            -32.1629   YY=            -43.9903   ZZ=            -46.0015
   XY=             -1.2399   XZ=              2.9656   YZ=             -0.3851
 Traceless Quadrupole moment (field-independent basis, Debye-Ang):
   XX=              8.5553   YY=             -3.2720   ZZ=             -5.2833
   XY=             -1.2399   XZ=              2.9656   YZ=             -0.3851
 Octapole moment (field-independent basis, Debye-Ang**2):
  XXX=             15.9166  YYY=             -5.1929  ZZZ=              0.6413  XYY=              0.1068
  XXY=              0.9104  XXZ=              8.4822  XZZ=              2.5258  YZZ=             -0.7287
  YYZ=              0.4920  XYZ=             -0.9843
 Hexadecapole moment (field-independent basis, Debye-Ang**3):
 XXXX=           -367.3725 YYYY=           -305.5720 ZZZZ=            -58.0219 XXXY=             10.3624
 XXXZ=             23.0479 YYYX=            -10.9678 YYYZ=             -0.2329 ZZZX=              2.8344
 ZZZY=             -0.3705 XXYY=            -99.7599 XXZZ=            -96.4610 YYZZ=            -62.7756
 XXYZ=             -2.5405 YYXZ=              1.9808 ZZXY=              0.3012
 N-N= 2.773584096358D+02 E-N=-2.026184501489D+03  KE= 6.208985829163D+02
 ******************************Gaussian NBO Version 3.1******************************
             N A T U R A L   A T O M I C   O R B I T A L   A N D
          N A T U R A L   B O N D   O R B I T A L   A N A L Y S I S
 ******************************Gaussian NBO Version 3.1******************************
       /RESON  / : Allow strongly delocalized NBO set

 Analyzing the SCF density

 Job title: ATZ                                                             

 Storage needed:     48294 in NPA,     64005 in NBO (1073741244 available)


 NATURAL POPULATIONS:  Natural atomic orbital occupancies 
                                                          
   NAO  Atom  No  lang   Type(AO)    Occupancy      Energy
 ----------------------------------------------------------
     1    C    1  S      Cor( 1S)     1.99931     -10.17379
     2    C    1  S      Val( 2S)     0.88929      -0.23742
     3    C    1  S      Ryd( 4S)     0.00552       0.97384
     4    C    1  S      Ryd( 3S)     0.00034       0.86609
     5    C    1  S      Ryd( 5S)     0.00016       3.58485
     6    C    1  px     Val( 2p)     0.90202      -0.09306
     7    C    1  px     Ryd( 4p)     0.00662       0.82666
     8    C    1  px     Ryd( 3p)     0.00058       0.32581
     9    C    1  py     Val( 2p)     0.95983      -0.11477
    10    C    1  py     Ryd( 4p)     0.01189       0.73771
    11    C    1  py     Ryd( 3p)     0.00124       0.27412
    12    C    1  pz     Val( 2p)     0.98861      -0.15498
    13    C    1  pz     Ryd( 4p)     0.00232       0.56446
    14    C    1  pz     Ryd( 3p)     0.00060       0.23335
    15    C    1  dxy    Ryd( 3d)     0.00184       2.43063
    16    C    1  dxz    Ryd( 3d)     0.00179       1.93570
    17    C    1  dyz    Ryd( 3d)     0.00119       2.00127
    18    C    1  dx2y2  Ryd( 3d)     0.00201       2.44286
    19    C    1  dz2    Ryd( 3d)     0.00061       2.21633

    20    C    2  S      Cor( 1S)     1.99907     -10.08466
    21    C    2  S      Val( 2S)     0.94612      -0.19185
    22    C    2  S      Ryd( 3S)     0.00191       0.92124
    23    C    2  S      Ryd( 4S)     0.00020       1.10647
    24    C    2  S      Ryd( 5S)     0.00006       3.46682
    25    C    2  px     Val( 2p)     0.93775      -0.03454
    26    C    2  px     Ryd( 4p)     0.00839       0.75927
    27    C    2  px     Ryd( 3p)     0.00044       0.33207
    28    C    2  py     Val( 2p)     1.14859      -0.07096
    29    C    2  py     Ryd( 4p)     0.00766       0.83671
    30    C    2  py     Ryd( 3p)     0.00085       0.28766
    31    C    2  pz     Val( 2p)     1.00329      -0.11754
    32    C    2  pz     Ryd( 4p)     0.00185       0.53862
    33    C    2  pz     Ryd( 3p)     0.00067       0.25956
    34    C    2  dxy    Ryd( 3d)     0.00148       2.45677
    35    C    2  dxz    Ryd( 3d)     0.00093       2.03577
    36    C    2  dyz    Ryd( 3d)     0.00060       1.86830
    37    C    2  dx2y2  Ryd( 3d)     0.00089       2.48978
    38    C    2  dz2    Ryd( 3d)     0.00043       2.34348

    39    C    3  S      Cor( 1S)     1.99906     -10.09312
    40    C    3  S      Val( 2S)     1.06432      -0.28322
    41    C    3  S      Ryd( 4S)     0.00097       1.02288
    42    C    3  S      Ryd( 3S)     0.00048       0.36289
    43    C    3  S      Ryd( 5S)     0.00003       4.18330
    44    C    3  px     Val( 2p)     1.16779      -0.12396
    45    C    3  px     Ryd( 4p)     0.00243       0.97109
    46    C    3  px     Ryd( 3p)     0.00073       0.34997
    47    C    3  py     Val( 2p)     1.06365      -0.11645
    48    C    3  py     Ryd( 4p)     0.00575       0.50002
    49    C    3  py     Ryd( 3p)     0.00035       0.41546
    50    C    3  pz     Val( 2p)     1.17892      -0.14975
    51    C    3  pz     Ryd( 4p)     0.00240       0.44752
    52    C    3  pz     Ryd( 3p)     0.00078       0.36949
    53    C    3  dxy    Ryd( 3d)     0.00143       2.24445
    54    C    3  dxz    Ryd( 3d)     0.00065       1.71581
    55    C    3  dyz    Ryd( 3d)     0.00067       1.87240
    56    C    3  dx2y2  Ryd( 3d)     0.00064       2.24789
    57    C    3  dz2    Ryd( 3d)     0.00085       2.14363

    58    S    4  S      Cor( 1S)     2.00000     -87.73754
    59    S    4  S      Cor( 2S)     1.99931      -8.89110
    60    S    4  S      Val( 3S)     1.66135      -0.74738
    61    S    4  S      Ryd( 5S)     0.00556       0.48429
    62    S    4  S      Ryd( 4S)     0.00034       0.33286
    63    S    4  S      Ryd( 6S)     0.00002       3.89468
    64    S    4  px     Cor( 2p)     1.99986      -5.93618
    65    S    4  px     Val( 3p)     0.93845      -0.18506
    66    S    4  px     Ryd( 5p)     0.00589       0.40373
    67    S    4  px     Ryd( 4p)     0.00019       0.22857
    68    S    4  py     Cor( 2p)     1.99984      -5.93348
    69    S    4  py     Val( 3p)     1.31298      -0.20789
    70    S    4  py     Ryd( 5p)     0.00185       0.35420
    71    S    4  py     Ryd( 4p)     0.00009       0.17425
    72    S    4  pz     Cor( 2p)     1.99997      -5.93136
    73    S    4  pz     Val( 3p)     1.68581      -0.25620
    74    S    4  pz     Ryd( 5p)     0.00469       0.38670
    75    S    4  pz     Ryd( 4p)     0.00011       0.20978
    76    S    4  dxy    Ryd( 3d)     0.00924       1.16632
    77    S    4  dxz    Ryd( 3d)     0.00412       0.82274
    78    S    4  dyz    Ryd( 3d)     0.00267       0.84449
    79    S    4  dx2y2  Ryd( 3d)     0.00227       1.10368
    80    S    4  dz2    Ryd( 3d)     0.00273       1.05823

    81    H    5  S      Val( 1S)     0.75447       0.08327
    82    H    5  S      Ryd( 2S)     0.00055       0.53509

    83    H    6  S      Val( 1S)     0.73222       0.08521
    84    H    6  S      Ryd( 2S)     0.00073       0.52400

    85    N    7  S      Cor( 1S)     1.99930     -14.13052
    86    N    7  S      Val( 2S)     1.38043      -0.52780
    87    N    7  S      Ryd( 3S)     0.00459       0.80304
    88    N    7  S      Ryd( 4S)     0.00007       1.48136
    89    N    7  S      Ryd( 5S)     0.00004       3.84994
    90    N    7  px     Val( 2p)     1.28613      -0.17098
    91    N    7  px     Ryd( 4p)     0.00544       0.91417
    92    N    7  px     Ryd( 3p)     0.00051       0.78253
    93    N    7  py     Val( 2p)     1.55102      -0.21753
    94    N    7  py     Ryd( 4p)     0.00538       0.76620
    95    N    7  py     Ryd( 3p)     0.00039       0.65669
    96    N    7  pz     Val( 2p)     1.28567      -0.18066
    97    N    7  pz     Ryd( 4p)     0.00101       0.65153
    98    N    7  pz     Ryd( 3p)     0.00021       0.59872
    99    N    7  dxy    Ryd( 3d)     0.00347       2.13641
   100    N    7  dxz    Ryd( 3d)     0.00053       1.75994
   101    N    7  dyz    Ryd( 3d)     0.00304       1.77470
   102    N    7  dx2y2  Ryd( 3d)     0.00307       2.20068
   103    N    7  dz2    Ryd( 3d)     0.00269       2.09777

   104    N    8  S      Cor( 1S)     1.99945     -14.21312
   105    N    8  S      Val( 2S)     1.36016      -0.58666
   106    N    8  S      Ryd( 4S)     0.00068       1.10503
   107    N    8  S      Ryd( 3S)     0.00007       1.10095
   108    N    8  S      Ryd( 5S)     0.00002       3.57493
   109    N    8  px     Val( 2p)     1.30725      -0.24120
   110    N    8  px     Ryd( 3p)     0.00336       0.46114
   111    N    8  px     Ryd( 4p)     0.00050       0.71158
   112    N    8  py     Val( 2p)     1.43190      -0.24385
   113    N    8  py     Ryd( 3p)     0.00411       0.70538
   114    N    8  py     Ryd( 4p)     0.00048       0.76923
   115    N    8  pz     Val( 2p)     1.74255      -0.26701
   116    N    8  pz     Ryd( 3p)     0.00800       0.42022
   117    N    8  pz     Ryd( 4p)     0.00028       0.69605
   118    N    8  dxy    Ryd( 3d)     0.00035       2.18978
   119    N    8  dxz    Ryd( 3d)     0.00093       1.89951
   120    N    8  dyz    Ryd( 3d)     0.00105       2.00574
   121    N    8  dx2y2  Ryd( 3d)     0.00061       2.32917
   122    N    8  dz2    Ryd( 3d)     0.00100       2.07810

   123    H    9  S      Val( 1S)     0.56826       0.11758
   124    H    9  S      Ryd( 2S)     0.00271       0.59228

   125    H   10  S      Val( 1S)     0.57831       0.10735
   126    H   10  S      Ryd( 2S)     0.00081       0.56997

 WARNING:  Population inversion found on atom  C    1
           Population inversion found on atom  C    2
           Population inversion found on atom  C    3
           Population inversion found on atom  S    4
           Population inversion found on atom  N    7
           Population inversion found on atom  N    8


 Summary of Natural Population Analysis:                  
                                                          
                                       Natural Population 
                Natural  -----------------------------------------------
    Atom  No    Charge         Core      Valence    Rydberg      Total
 -----------------------------------------------------------------------
      C    1    0.22422      1.99931     3.73975    0.03672     5.77578
      C    2   -0.06119      1.99907     4.03574    0.02637     6.06119
      C    3   -0.49189      1.99906     4.47467    0.01817     6.49189
      S    4    0.36266      9.99897     5.59860    0.03976    15.63734
      H    5    0.24498      0.00000     0.75447    0.00055     0.75502
      H    6    0.26704      0.00000     0.73222    0.00073     0.73296
      N    7   -0.53297      1.99930     5.50324    0.03043     7.53297
      N    8   -0.86276      1.99945     5.84186    0.02146     7.86276
      H    9    0.42903      0.00000     0.56826    0.00271     0.57097
      H   10    0.42087      0.00000     0.57831    0.00081     0.57913
 =======================================================================
   * Total *    0.00000     19.99516    31.82713    0.17772    52.00000

                                 Natural Population      
 --------------------------------------------------------
   Core                      19.99516 ( 99.9758% of  20)
   Valence                   31.82713 ( 99.4598% of  32)
   Natural Minimal Basis     51.82228 ( 99.6582% of  52)
   Natural Rydberg Basis      0.17772 (  0.3418% of  52)
 --------------------------------------------------------

    Atom  No          Natural Electron Configuration
 ----------------------------------------------------------------------------
      C    1      [core]2S( 0.89)2p( 2.85)4S( 0.01)3d( 0.01)4p( 0.02)
      C    2      [core]2S( 0.95)2p( 3.09)4p( 0.02)
      C    3      [core]2S( 1.06)2p( 3.41)4p( 0.01)
      S    4      [core]3S( 1.66)3p( 3.94)3d( 0.02)5S( 0.01)5p( 0.01)
      H    5            1S( 0.75)
      H    6            1S( 0.73)
      N    7      [core]2S( 1.38)2p( 4.12)3d( 0.01)4p( 0.01)
      N    8      [core]2S( 1.36)2p( 4.48)3p( 0.02)
      H    9            1S( 0.57)
      H   10            1S( 0.58)


 NATURAL BOND ORBITAL ANALYSIS:

                       Occupancies       Lewis Structure    Low   High
           Occ.    -------------------  -----------------   occ   occ
  Cycle   Thresh.   Lewis   Non-Lewis     CR  BD  3C  LP    (L)   (NL)   Dev
 =============================================================================
   1(1)    1.90    50.11927   1.88073     10  14   0   2     6      4    0.56
   2(2)    1.90    50.10030   1.89970     10  14   0   2     6      4    0.21
   3(3)    1.90    50.11927   1.88073     10  14   0   2     6      4    0.56
   4(4)    1.90    50.10030   1.89970     10  14   0   2     6      4    0.21
   5(5)    1.90    50.11927   1.88073     10  14   0   2     6      4    0.56
   6(6)    1.90    50.10030   1.89970     10  14   0   2     6      4    0.21
   7(7)    1.90    50.11927   1.88073     10  14   0   2     6      4    0.56
   8(8)    1.90    50.10030   1.89970     10  14   0   2     6      4    0.21
   9(9)    1.90    50.11927   1.88073     10  14   0   2     6      4    0.56
  10(1)    1.80    51.02092   0.97908     10  12   0   4     1      2    0.21
  11(2)    1.80    51.02092   0.97908     10  12   0   4     1      2    0.21
  12(1)    1.70    51.02092   0.97908     10  12   0   4     1      2    0.21
  13(2)    1.70    51.02092   0.97908     10  12   0   4     1      2    0.21
  14(1)    1.60    50.04661   1.95339     10  11   0   5     1      2    0.69
  15(2)    1.60    51.02117   0.97883     10  12   0   4     0      2    0.21
  16(3)    1.60    50.04661   1.95339     10  11   0   5     1      2    0.69
  17(4)    1.60    51.02117   0.97883     10  12   0   4     0      2    0.21
  18(1)    1.50    51.02117   0.97883     10  12   0   4     0      2    0.21
  19(2)    1.50    50.04661   1.95339     10  11   0   5     1      2    0.69
  20(3)    1.50    51.02117   0.97883     10  12   0   4     0      2    0.21
  21(1)    1.60    51.02117   0.97883     10  12   0   4     0      2    0.21
 -----------------------------------------------------------------------------

 Structure accepted: RESONANCE keyword permits strongly delocalized structure

 --------------------------------------------------------
   Core                     19.99517 ( 99.976% of  20)
   Valence Lewis            31.02601 ( 96.956% of  32)
  ==================       ============================
   Total Lewis              51.02117 ( 98.118% of  52)
  -----------------------------------------------------
   Valence non-Lewis         0.89490 (  1.721% of  52)
   Rydberg non-Lewis         0.08392 (  0.161% of  52)
  ==================       ============================
   Total non-Lewis           0.97883 (  1.882% of  52)
 --------------------------------------------------------


       (Occupancy)   Bond orbital/ Coefficients/ Hybrids
 ---------------------------------------------------------------------------------
     1. (1.97874) BD ( 1) C   1 - S   4  
                ( 52.99%)   0.7280* C   1 s( 29.35%)p 2.40( 70.53%)d 0.00(  0.12%)
                                            0.0002 -0.5399 -0.0448  0.0049  0.0024
                                            0.4595  0.0383 -0.0138  0.7016  0.0093
                                           -0.0155  0.0040 -0.0012  0.0005 -0.0280
                                           -0.0011  0.0000  0.0117  0.0161
                ( 47.01%)   0.6856* S   4 s( 15.63%)p 5.36( 83.73%)d 0.04(  0.64%)
                                            0.0000 -0.0002 -0.3933  0.0399 -0.0071
                                           -0.0004 -0.0001 -0.6218  0.0507 -0.0038
                                           -0.0001 -0.6689  0.0214  0.0016  0.0000
                                           -0.0099  0.0005  0.0004 -0.0684 -0.0014
                                           -0.0012  0.0216  0.0352
     2. (1.98732) BD ( 1) C   1 - N   7  
                ( 41.72%)   0.6459* C   1 s( 36.76%)p 1.72( 63.19%)d 0.00(  0.05%)
                                            0.0000  0.6058 -0.0232  0.0012  0.0031
                                           -0.3634 -0.0116  0.0076  0.7041 -0.0611
                                           -0.0054  0.0119  0.0004 -0.0001 -0.0131
                                           -0.0001  0.0000 -0.0130 -0.0118
                ( 58.28%)   0.7634* N   7 s( 35.80%)p 1.79( 63.95%)d 0.01(  0.25%)
                                           -0.0001  0.5977 -0.0271  0.0020 -0.0014
                                            0.4403 -0.0291 -0.0060 -0.6667  0.0029
                                            0.0104  0.0104  0.0000  0.0005 -0.0255
                                           -0.0004 -0.0001 -0.0301 -0.0307
     3. (1.87722) BD ( 2) C   1 - N   7  
                ( 39.87%)   0.6315* C   1 s(  0.01%)p99.99( 99.90%)d 6.30(  0.09%)
                                            0.0001  0.0099  0.0055  0.0024  0.0017
                                            0.0233  0.0042 -0.0011 -0.0133 -0.0007
                                           -0.0001  0.9987  0.0201  0.0219 -0.0004
                                           -0.0197  0.0218  0.0001  0.0005
                ( 60.13%)   0.7754* N   7 s(  0.01%)p 1.00( 99.74%)d 0.00(  0.26%)
                                           -0.0001 -0.0085  0.0039  0.0005 -0.0002
                                           -0.0078  0.0020  0.0009  0.0025 -0.0015
                                           -0.0015  0.9985 -0.0121  0.0100  0.0001
                                           -0.0111 -0.0493  0.0002  0.0004
     4. (1.99393) BD ( 1) C   1 - N   8  
                ( 40.84%)   0.6390* C   1 s( 33.70%)p 1.96( 66.19%)d 0.00(  0.10%)
                                           -0.0003  0.5795 -0.0349  0.0059 -0.0019
                                            0.8076 -0.0454 -0.0061 -0.0831 -0.0010
                                           -0.0004 -0.0255  0.0082 -0.0001 -0.0059
                                           -0.0018  0.0001  0.0280 -0.0143
                ( 59.16%)   0.7692* N   8 s( 35.07%)p 1.85( 64.88%)d 0.00(  0.05%)
                                            0.0001  0.5922  0.0008 -0.0016 -0.0027
                                           -0.8027  0.0260  0.0096  0.0515  0.0012
                                           -0.0020  0.0324  0.0011  0.0004 -0.0038
                                           -0.0109 -0.0003  0.0149 -0.0134
     5. (1.98903) BD ( 1) C   2 - C   3  
                ( 49.21%)   0.7015* C   2 s( 37.60%)p 1.66( 62.35%)d 0.00(  0.05%)
                                            0.0000  0.6131 -0.0069 -0.0053  0.0020
                                           -0.2722  0.0362 -0.0052 -0.7400  0.0133
                                            0.0126 -0.0124 -0.0005 -0.0003  0.0086
                                            0.0001  0.0002 -0.0175 -0.0091
                ( 50.79%)   0.7127* C   3 s( 39.10%)p 1.56( 60.86%)d 0.00(  0.04%)
                                            0.0001  0.6252 -0.0099  0.0046  0.0025
                                            0.2192  0.0207 -0.0128  0.7469 -0.0417
                                            0.0016 -0.0185 -0.0008 -0.0002  0.0135
                                           -0.0005 -0.0003 -0.0085 -0.0133
     6. (1.92849) BD ( 2) C   2 - C   3  
                ( 44.72%)   0.6688* C   2 s(  0.01%)p 1.00( 99.93%)d 0.00(  0.07%)
                                            0.0000  0.0079 -0.0010  0.0005 -0.0002
                                            0.0025  0.0002 -0.0008 -0.0111  0.0004
                                            0.0004  0.9988  0.0314  0.0240 -0.0002
                                           -0.0053 -0.0255 -0.0003  0.0001
                ( 55.28%)   0.7435* C   3 s(  0.01%)p 1.00( 99.94%)d 0.00(  0.06%)
                                            0.0000  0.0070 -0.0006 -0.0005  0.0001
                                            0.0149  0.0003 -0.0007  0.0145  0.0000
                                            0.0004  0.9987  0.0344  0.0204  0.0003
                                            0.0172  0.0163  0.0003 -0.0004
     7. (1.97848) BD ( 1) C   2 - H   5  
                ( 62.44%)   0.7902* C   2 s( 33.18%)p 2.01( 66.76%)d 0.00(  0.05%)
                                           -0.0004  0.5758  0.0170  0.0032 -0.0017
                                           -0.4874 -0.0174  0.0076  0.6554  0.0087
                                           -0.0067  0.0040  0.0003  0.0000 -0.0194
                                           -0.0002  0.0003 -0.0070 -0.0112
                ( 37.56%)   0.6128* H   5 s(100.00%)
                                            1.0000  0.0023
     8. (1.97798) BD ( 1) C   2 - N   7  
                ( 40.44%)   0.6360* C   2 s( 29.18%)p 2.42( 70.75%)d 0.00(  0.07%)
                                            0.0000  0.5398 -0.0201  0.0015 -0.0005
                                            0.8260 -0.0394 -0.0130  0.1408 -0.0595
                                            0.0124 -0.0048 -0.0002 -0.0001  0.0064
                                           -0.0001  0.0000  0.0214 -0.0147
                ( 59.56%)   0.7717* N   7 s( 32.64%)p 2.06( 67.13%)d 0.01(  0.23%)
                                           -0.0004  0.5705 -0.0300 -0.0014  0.0019
                                           -0.8179  0.0172  0.0120 -0.0293 -0.0320
                                            0.0037 -0.0014  0.0002 -0.0003  0.0277
                                            0.0003 -0.0002  0.0262 -0.0293
     9. (1.97742) BD ( 1) C   3 - S   4  
                ( 51.05%)   0.7145* C   3 s( 24.65%)p 3.05( 75.21%)d 0.01(  0.14%)
                                           -0.0002  0.4961  0.0112 -0.0152 -0.0017
                                            0.6266  0.0186 -0.0195 -0.5972  0.0451
                                            0.0033 -0.0042  0.0003  0.0003 -0.0290
                                           -0.0002  0.0002  0.0087 -0.0216
                ( 48.95%)   0.6997* S   4 s( 18.00%)p 4.52( 81.38%)d 0.03(  0.62%)
                                            0.0000  0.0000  0.4210 -0.0524 -0.0030
                                           -0.0003 -0.0001 -0.7667  0.0566 -0.0011
                                            0.0000  0.4718 -0.0021 -0.0035  0.0000
                                            0.0116 -0.0005 -0.0005 -0.0689 -0.0016
                                            0.0012  0.0134 -0.0356
    10. (1.98542) BD ( 1) C   3 - H   6  
                ( 63.49%)   0.7968* C   3 s( 36.13%)p 1.77( 63.82%)d 0.00(  0.04%)
                                            0.0003 -0.6011  0.0016 -0.0066  0.0010
                                            0.7464 -0.0053 -0.0061  0.2843  0.0017
                                           -0.0018 -0.0110  0.0002  0.0001 -0.0131
                                            0.0007  0.0002 -0.0113  0.0123
                ( 36.51%)   0.6042* H   6 s(100.00%)
                                           -1.0000 -0.0031
    11. (1.98286) BD ( 1) N   8 - H   9  
                ( 71.73%)   0.8470* N   8 s( 27.27%)p 2.66( 72.66%)d 0.00(  0.06%)
                                           -0.0003  0.5222  0.0007  0.0024  0.0010
                                            0.4365 -0.0263  0.0070  0.7144 -0.0155
                                           -0.0091  0.1569  0.0068  0.0015  0.0100
                                            0.0094  0.0150 -0.0117 -0.0097
                ( 28.27%)   0.5317* H   9 s(100.00%)
                                            1.0000 -0.0070
    12. (1.98426) BD ( 1) N   8 - H  10  
                ( 71.13%)   0.8434* N   8 s( 26.69%)p 2.74( 73.24%)d 0.00(  0.06%)
                                           -0.0003  0.5166 -0.0047  0.0017  0.0012
                                            0.3521 -0.0281  0.0074 -0.6775  0.0225
                                            0.0076  0.3847 -0.0006 -0.0006 -0.0058
                                            0.0088 -0.0214 -0.0078  0.0002
                ( 28.87%)   0.5373* H  10 s(100.00%)
                                            1.0000 -0.0023
    13. (1.99931) CR ( 1) C   1           s(100.00%)p 0.00(  0.00%)
                                            1.0000  0.0002  0.0000  0.0000  0.0000
                                            0.0001  0.0000  0.0000 -0.0002  0.0000
                                            0.0000 -0.0001  0.0000  0.0000  0.0000
                                            0.0000  0.0000  0.0000  0.0000
    14. (1.99908) CR ( 1) C   2           s(100.00%)p 0.00(  0.00%)
                                            1.0000  0.0002  0.0000  0.0000  0.0000
                                           -0.0002  0.0000  0.0000  0.0003  0.0000
                                            0.0000  0.0000  0.0000  0.0000  0.0000
                                            0.0000  0.0000  0.0000  0.0000
    15. (1.99906) CR ( 1) C   3           s(100.00%)p 0.00(  0.00%)
                                            1.0000  0.0002  0.0000  0.0000  0.0000
                                           -0.0001  0.0000  0.0000 -0.0002  0.0000
                                            0.0000  0.0000  0.0000  0.0000  0.0000
                                            0.0000  0.0000  0.0000  0.0000
    16. (2.00000) CR ( 1) S   4           s(100.00%)
                                            1.0000  0.0000  0.0000  0.0000  0.0000
                                            0.0000  0.0000  0.0000  0.0000  0.0000
                                            0.0000  0.0000  0.0000  0.0000  0.0000
                                            0.0000  0.0000  0.0000  0.0000  0.0000
                                            0.0000  0.0000  0.0000
    17. (1.99931) CR ( 2) S   4           s(100.00%)p 0.00(  0.00%)
                                            0.0000  1.0000  0.0003  0.0000  0.0000
                                            0.0000  0.0000 -0.0001  0.0000  0.0000
                                            0.0000 -0.0003  0.0000  0.0000  0.0000
                                            0.0000  0.0000  0.0000  0.0000  0.0000
                                            0.0000  0.0000  0.0000
    18. (1.99986) CR ( 3) S   4           s(  0.00%)p 1.00(100.00%)
                                            0.0000  0.0000  0.0000  0.0000  0.0000
                                            0.0000  1.0000 -0.0001  0.0000  0.0000
                                            0.0000 -0.0001  0.0000  0.0000  0.0000
                                            0.0000  0.0000  0.0000  0.0000  0.0000
                                            0.0000  0.0000  0.0000
    19. (1.99984) CR ( 4) S   4           s(  0.00%)p 1.00(100.00%)
                                            0.0000  0.0000  0.0001  0.0000  0.0000
                                            0.0000  0.0000 -0.0001  0.0000  0.0000
                                            1.0000 -0.0001  0.0000  0.0000  0.0000
                                            0.0000  0.0000  0.0000  0.0000  0.0000
                                            0.0000  0.0000  0.0000
    20. (1.99996) CR ( 5) S   4           s(  0.00%)p 1.00(100.00%)
                                            0.0000  0.0000  0.0000  0.0000  0.0000
                                            0.0000  0.0000  0.0000  0.0000  0.0000
                                            0.0000  0.0000  0.0000  0.0000  1.0000
                                           -0.0007  0.0000  0.0000  0.0000  0.0000
                                            0.0000  0.0000  0.0000
    21. (1.99930) CR ( 1) N   7           s(100.00%)p 0.00(  0.00%)
                                            1.0000  0.0002  0.0000  0.0000  0.0000
                                           -0.0003  0.0000  0.0000 -0.0001  0.0000
                                            0.0000  0.0001  0.0000  0.0000  0.0000
                                            0.0000  0.0000  0.0000  0.0000
    22. (1.99945) CR ( 1) N   8           s(100.00%)p 0.00(  0.00%)
                                            1.0000  0.0001  0.0000  0.0000  0.0000
                                            0.0002  0.0000  0.0000  0.0001  0.0000
                                            0.0000  0.0006  0.0000  0.0000  0.0000
                                            0.0000  0.0000  0.0000  0.0000
    23. (1.98403) LP ( 1) S   4           s( 66.75%)p 0.50( 33.23%)d 0.00(  0.02%)
                                            0.0000 -0.0004  0.8167  0.0232 -0.0006
                                           -0.0002  0.0000  0.0967  0.0021 -0.0017
                                           -0.0002 -0.5683 -0.0069  0.0000  0.0000
                                            0.0015  0.0011  0.0002  0.0033  0.0005
                                           -0.0005  0.0079  0.0103
    24. (1.69057) LP ( 2) S   4           s(  0.01%)p99.99( 99.89%)d 8.72(  0.10%)
                                            0.0000  0.0000  0.0100 -0.0032 -0.0006
                                            0.0002  0.0000 -0.0029 -0.0030 -0.0005
                                            0.0000  0.0110 -0.0001  0.0003 -0.0007
                                           -0.9985 -0.0418  0.0008  0.0010 -0.0007
                                           -0.0309 -0.0003 -0.0016
    25. (1.88504) LP ( 1) N   7           s( 31.70%)p 2.15( 68.13%)d 0.01(  0.17%)
                                            0.0001  0.5619  0.0349 -0.0003 -0.0006
                                            0.3629  0.0203 -0.0003  0.7407  0.0207
                                            0.0070  0.0056  0.0008  0.0011 -0.0288
                                           -0.0001 -0.0001  0.0232  0.0179
    26. (1.82521) LP ( 1) N   8           s( 10.87%)p 8.19( 89.07%)d 0.01(  0.06%)
                                            0.0005  0.3297  0.0025 -0.0032  0.0004
                                            0.1967  0.0112  0.0088 -0.1617 -0.0122
                                           -0.0029 -0.9070 -0.0529 -0.0080  0.0017
                                            0.0136 -0.0054 -0.0019 -0.0187
    27. (0.00931) RY*( 1) C   1           s(  2.19%)p44.53( 97.43%)d 0.17(  0.38%)
                                            0.0000  0.0501  0.1278  0.0159 -0.0528
                                           -0.0162  0.1198  0.0109  0.0389  0.9777
                                            0.0159  0.0007 -0.0425  0.0126 -0.0058
                                            0.0278  0.0175 -0.0512  0.0085
    28. (0.00514) RY*( 2) C   1           s( 36.28%)p 0.80( 29.07%)d 0.96( 34.65%)
                                            0.0000 -0.0180  0.5921  0.1057  0.0266
                                            0.0435 -0.3493  0.1316  0.0467 -0.0660
                                            0.3781 -0.0014 -0.0012  0.0030  0.3712
                                            0.0392  0.0083 -0.4516  0.0564
    29. (0.00331) RY*( 3) C   1           s( 11.16%)p 6.21( 69.28%)d 1.75( 19.56%)
                                            0.0000  0.0369  0.3027  0.1295 -0.0425
                                            0.0324  0.7278  0.0715 -0.0100 -0.1553
                                            0.0116 -0.0117 -0.3639  0.0114 -0.0280
                                           -0.2852  0.3118 -0.1268 -0.0120
    30. (0.00229) RY*( 4) C   1           s(  3.09%)p11.08( 34.18%)d20.34( 62.74%)
                                            0.0000 -0.0030  0.0729  0.1564  0.0324
                                           -0.0055 -0.0524  0.0257  0.0022  0.0446
                                           -0.0756 -0.0216  0.5498 -0.1670 -0.0848
                                           -0.7830 -0.0753 -0.0261  0.0277
    31. (0.00204) RY*( 5) C   1           s(  4.81%)p 6.82( 32.84%)d12.95( 62.35%)
                                            0.0000  0.0233  0.2109  0.0407 -0.0381
                                            0.0189  0.4583 -0.0450 -0.0048 -0.0733
                                           -0.0688  0.0117  0.3243 -0.0216 -0.0051
                                            0.3021 -0.7191 -0.1224  0.0016
    32. (0.00130) RY*( 6) C   1           s( 26.90%)p 1.46( 39.32%)d 1.26( 33.78%)
                                            0.0000 -0.0007  0.4950 -0.0422  0.1489
                                            0.0085 -0.2546 -0.1797  0.0012 -0.0313
                                           -0.5258 -0.0002 -0.1267  0.0491 -0.5631
                                            0.0688  0.0268 -0.0870  0.0876
    33. (0.00044) RY*( 7) C   1           s( 19.29%)p 0.25(  4.90%)d 3.93( 75.81%)
                                            0.0000 -0.0027  0.4184 -0.1115  0.0737
                                           -0.0025 -0.0483  0.0917  0.0315  0.0004
                                           -0.0850  0.0053 -0.1370 -0.1059  0.3377
                                           -0.0906 -0.1481  0.7790 -0.0842
    34. (0.00036) RY*( 8) C   1           s(  4.52%)p13.64( 61.62%)d 7.50( 33.87%)
                                            0.0000  0.0064  0.1891  0.0968 -0.0035
                                           -0.0054  0.1362 -0.5055  0.0081 -0.0247
                                            0.1015 -0.0233  0.5235  0.2377  0.0792
                                            0.2541  0.4741  0.1929 -0.0765
    35. (0.00018) RY*( 9) C   1           s(  4.28%)p20.33( 86.95%)d 2.05(  8.77%)
                                            0.0000 -0.0007  0.0393 -0.1367  0.1501
                                            0.0099  0.0811  0.7745 -0.0010 -0.0079
                                           -0.1600 -0.0160  0.3358  0.3527 -0.0568
                                            0.1652  0.2187  0.0434  0.0864
    36. (0.00010) RY*(10) C   1           s( 84.99%)p 0.04(  3.69%)d 0.13( 11.31%)
                                            0.0000  0.0072 -0.1498  0.6662  0.6193
                                           -0.0098  0.0104 -0.0312 -0.0085  0.0384
                                           -0.1480  0.0011 -0.0954  0.0567  0.1905
                                            0.0717 -0.0428  0.0425  0.2609
    37. (0.00007) RY*(11) C   1           s( 79.59%)p 0.11(  8.59%)d 0.15( 11.82%)
    38. (0.00002) RY*(12) C   1           s( 12.40%)p 3.98( 49.33%)d 3.09( 38.27%)
    39. (0.00001) RY*(13) C   1           s(  9.28%)p 0.17(  1.55%)d 9.61( 89.17%)
    40. (0.00000) RY*(14) C   1           s(  1.39%)p58.53( 81.43%)d12.34( 17.17%)
    41. (0.00764) RY*( 1) C   2           s(  5.78%)p15.37( 88.86%)d 0.93(  5.35%)
                                            0.0000  0.0185  0.2158 -0.1043  0.0049
                                            0.0570  0.8222  0.0260  0.0439  0.4545
                                            0.0088  0.0005 -0.0071 -0.0004  0.2291
                                            0.0046  0.0021 -0.0036  0.0317
    42. (0.00504) RY*( 2) C   2           s( 10.66%)p 7.49( 79.82%)d 0.89(  9.53%)
                                            0.0000 -0.0117  0.3187  0.0499  0.0483
                                           -0.0360  0.2945 -0.0496  0.0059 -0.8262
                                            0.1571  0.0014 -0.0171  0.0011  0.3058
                                            0.0105  0.0025  0.0031  0.0403
    43. (0.00133) RY*( 3) C   2           s(  0.21%)p94.56( 19.58%)d99.99( 80.22%)
                                            0.0000  0.0003  0.0404 -0.0201  0.0059
                                            0.0014 -0.0267  0.0260 -0.0019  0.0161
                                           -0.0004  0.0291 -0.3861 -0.2103 -0.0171
                                            0.8480  0.2874  0.0070 -0.0094
    44. (0.00093) RY*( 4) C   2           s(  3.55%)p20.02( 71.06%)d 7.15( 25.39%)
                                            0.0000 -0.0011  0.1507  0.0365 -0.1071
                                            0.0127 -0.2263  0.4424  0.0041  0.1680
                                            0.6535 -0.0020  0.0900  0.0123  0.2588
                                            0.0125  0.0361 -0.4193  0.0982
    45. (0.00067) RY*( 5) C   2           s(  0.12%)p99.99( 71.55%)d99.99( 28.33%)
                                            0.0000 -0.0003 -0.0204 -0.0173  0.0212
                                           -0.0018  0.0302 -0.0365 -0.0002 -0.0252
                                           -0.0523 -0.0167  0.8271  0.1597 -0.0203
                                            0.2630  0.4589  0.0512 -0.0224
    46. (0.00024) RY*( 6) C   2           s( 78.92%)p 0.19( 14.67%)d 0.08(  6.41%)
                                            0.0000  0.0084  0.8713 -0.0159 -0.1725
                                            0.0181 -0.2686  0.0652 -0.0299  0.1360
                                           -0.2209 -0.0004  0.0355 -0.0219 -0.1270
                                           -0.0446 -0.0076  0.2127  0.0266
    47. (0.00011) RY*( 7) C   2           s(  8.60%)p 1.39( 11.93%)d 9.24( 79.46%)
                                            0.0000  0.0073 -0.1085 -0.1783  0.2060
                                           -0.0227 -0.2779  0.0518 -0.0003  0.1221
                                           -0.1410  0.0006  0.0185 -0.0612  0.7616
                                            0.0034 -0.0289  0.4336  0.1606
    48. (0.00009) RY*( 8) C   2           s( 65.72%)p 0.16( 10.24%)d 0.37( 24.04%)
    49. (0.00004) RY*( 9) C   2           s( 14.14%)p 5.63( 79.66%)d 0.44(  6.20%)
    50. (0.00001) RY*(10) C   2           s( 76.14%)p 0.22( 16.53%)d 0.10(  7.33%)
    51. (0.00001) RY*(11) C   2           s(  1.58%)p62.10( 98.05%)d 0.23(  0.37%)
    52. (0.00002) RY*(12) C   2           s( 26.38%)p 0.92( 24.18%)d 1.87( 49.45%)
    53. (0.00000) RY*(13) C   2           s(  0.24%)p42.34( 10.26%)d99.99( 89.50%)
    54. (0.00000) RY*(14) C   2           s(  8.00%)p 0.48(  3.82%)d11.03( 88.18%)
    55. (0.00301) RY*( 1) C   3           s(  8.60%)p 9.42( 80.97%)d 1.21( 10.43%)
                                            0.0000 -0.0179  0.2463  0.1578 -0.0087
                                           -0.0025  0.6233 -0.1050 -0.0342 -0.5971
                                            0.2265  0.0019 -0.0298 -0.0176 -0.1765
                                            0.0194 -0.0112 -0.2685  0.0241
    56. (0.00210) RY*( 2) C   3           s( 16.44%)p 4.58( 75.26%)d 0.51(  8.31%)
                                            0.0000 -0.0057  0.3932  0.0985 -0.0047
                                           -0.0288  0.4140 -0.0176  0.0503  0.7598
                                           -0.0133 -0.0003  0.0040  0.0017 -0.2302
                                            0.0026  0.0004 -0.1715 -0.0253
    57. (0.00118) RY*( 3) C   3           s(  0.58%)p99.11( 57.13%)d73.38( 42.30%)
                                            0.0000  0.0024  0.0493  0.0576  0.0024
                                            0.0032 -0.0518  0.0521 -0.0002  0.0068
                                           -0.0548  0.0286 -0.5200 -0.5400  0.0228
                                            0.4600 -0.4591  0.0072 -0.0021
    58. (0.00068) RY*( 4) C   3           s(  0.15%)p99.99( 49.59%)d99.99( 50.26%)
                                            0.0000  0.0009  0.0110  0.0372 -0.0030
                                            0.0010 -0.0294  0.0163  0.0003  0.0103
                                            0.0289  0.0124 -0.7012  0.0451  0.0005
                                           -0.0418  0.7077  0.0013  0.0030
    59. (0.00042) RY*( 5) C   3           s( 56.13%)p 0.63( 35.62%)d 0.15(  8.26%)
                                            0.0000  0.0197  0.7254  0.1194  0.1429
                                            0.0158 -0.4481  0.3588 -0.0061 -0.1370
                                            0.0368 -0.0022  0.0688  0.0385  0.1576
                                           -0.0393  0.0200 -0.2257  0.0695
    60. (0.00028) RY*( 6) C   3           s(  4.28%)p16.77( 71.86%)d 5.57( 23.86%)
                                            0.0000 -0.0064  0.1542  0.1349 -0.0286
                                            0.0064  0.1661 -0.3438 -0.0172 -0.0722
                                           -0.7528 -0.0004  0.0003  0.0234  0.4836
                                           -0.0255  0.0340 -0.0515  0.0173
    61. (0.00008) RY*( 7) C   3           s( 69.22%)p 0.14(  9.49%)d 0.31( 21.29%)
    62. (0.00004) RY*( 8) C   3           s( 25.46%)p 0.73( 18.57%)d 2.20( 55.97%)
    63. (0.00004) RY*( 9) C   3           s( 14.29%)p 5.36( 76.60%)d 0.64(  9.11%)
    64. (0.00001) RY*(10) C   3           s(  5.04%)p 1.17(  5.88%)d17.68( 89.08%)
    65. (0.00000) RY*(11) C   3           s(  0.01%)p99.99( 15.15%)d99.99( 84.83%)
    66. (0.00000) RY*(12) C   3           s(  0.04%)p99.99( 78.17%)d99.99( 21.78%)
    67. (0.00001) RY*(13) C   3           s(  9.29%)p 1.81( 16.78%)d 7.96( 73.93%)
    68. (0.00000) RY*(14) C   3           s( 90.59%)p 0.10(  9.10%)d 0.00(  0.31%)
    69. (0.00502) RY*( 1) S   4           s(  0.17%)p99.99( 21.95%)d99.99( 77.88%)
                                            0.0000  0.0000 -0.0002  0.0322  0.0252
                                            0.0013  0.0000  0.0010  0.0321  0.0252
                                            0.0000  0.0031  0.0011 -0.0005  0.0000
                                           -0.0136  0.4664  0.0093 -0.0085  0.8545
                                           -0.2189  0.0191 -0.0146
    70. (0.00300) RY*( 2) S   4           s(  1.18%)p46.44( 54.83%)d37.25( 43.99%)
                                            0.0000  0.0000 -0.0089 -0.0589  0.0750
                                           -0.0514  0.0000 -0.0509 -0.2972 -0.0455
                                            0.0000 -0.0268 -0.6689 -0.0789  0.0000
                                            0.0006  0.0288  0.0088  0.0610  0.0069
                                           -0.0193 -0.6561 -0.0728
    71. (0.00210) RY*( 3) S   4           s(  1.53%)p22.65( 34.61%)d41.79( 63.86%)
                                            0.0000  0.0000  0.0001  0.0101  0.1216
                                           -0.0197  0.0000 -0.0940 -0.4920 -0.0556
                                            0.0000 -0.0140  0.0781 -0.0684  0.0000
                                            0.0045 -0.2843  0.0162  0.6443  0.2489
                                            0.3062  0.2321 -0.1181
    72. (0.00183) RY*( 4) S   4           s(  0.62%)p52.03( 32.31%)d99.99( 67.07%)
                                            0.0000  0.0000  0.0002  0.0119  0.0766
                                           -0.0140  0.0000 -0.0494 -0.2400  0.0047
                                            0.0000 -0.0053  0.0596 -0.0729  0.0000
                                           -0.0017  0.5020  0.0453  0.3695 -0.4172
                                           -0.5773  0.1469 -0.0723
    73. (0.00049) RY*( 5) S   4           s( 20.30%)p 1.08( 21.96%)d 2.84( 57.74%)
                                            0.0000  0.0000  0.0231  0.3657 -0.2575
                                            0.0489  0.0000 -0.0417  0.0738  0.0556
                                            0.0000  0.0365  0.4497  0.0642  0.0000
                                            0.0004 -0.0103 -0.0400  0.3291  0.0122
                                           -0.0198 -0.5784  0.3660
    74. (0.00038) RY*( 6) S   4           s( 87.92%)p 0.12( 10.43%)d 0.02(  1.64%)
                                            0.0000  0.0000  0.0086  0.6190  0.7013
                                            0.0647  0.0000 -0.0031  0.0713  0.1976
                                            0.0000  0.0345 -0.0375 -0.0011  0.0000
                                           -0.0041  0.0056 -0.2399 -0.0791 -0.0426
                                            0.0500  0.0068 -0.0763
    75. (0.00034) RY*( 7) S   4           s(  4.75%)p13.86( 65.77%)d 6.21( 29.48%)
                                            0.0000  0.0000  0.0150  0.2056 -0.0652
                                            0.0271  0.0000 -0.0078 -0.7202  0.0473
                                            0.0000  0.0251  0.1574  0.2275  0.0000
                                            0.0041 -0.0212  0.2431 -0.5037  0.0106
                                           -0.0595  0.0429  0.1887
    76. (0.00017) RY*( 8) S   4           s( 10.81%)p 8.02( 86.64%)d 0.24(  2.55%)
                                            0.0000  0.0000  0.0022  0.0296  0.3236
                                            0.0498  0.0000  0.0072  0.1221 -0.8386
                                            0.0000  0.0065  0.0952  0.1705  0.0000
                                            0.0081 -0.0955  0.3175  0.0052  0.0278
                                           -0.1283 -0.0842  0.0339
    77. (0.00006) RY*( 9) S   4           s(  2.85%)p32.95( 93.98%)d 1.11(  3.17%)
    78. (0.00002) RY*(10) S   4           s(  8.27%)p10.01( 82.74%)d 1.09(  8.99%)
    79. (0.00003) RY*(11) S   4           s( 65.73%)p 0.18( 11.70%)d 0.34( 22.57%)
    80. (0.00000) RY*(12) S   4           s(  3.28%)p 7.90( 25.91%)d21.58( 70.81%)
    81. (0.00000) RY*(13) S   4           s( 89.43%)p 0.10(  8.82%)d 0.02(  1.75%)
    82. (0.00000) RY*(14) S   4           s(  2.78%)p18.04( 50.10%)d16.97( 47.13%)
    83. (0.00055) RY*( 1) H   5           s(100.00%)
                                           -0.0023  1.0000
    84. (0.00074) RY*( 1) H   6           s(100.00%)
                                           -0.0031  1.0000
    85. (0.00471) RY*( 1) N   7           s(  0.32%)p99.99( 99.05%)d 1.96(  0.63%)
                                            0.0000  0.0034  0.0560 -0.0067  0.0022
                                           -0.0122  0.6919 -0.0807 -0.0391  0.7089
                                            0.0229 -0.0003  0.0245 -0.0090  0.0402
                                           -0.0013 -0.0041  0.0329  0.0596
    86. (0.00228) RY*( 2) N   7           s(  0.28%)p99.99( 96.87%)d10.21(  2.85%)
                                            0.0000 -0.0078  0.0247  0.0159  0.0433
                                            0.0288  0.6600 -0.2632 -0.0181 -0.6771
                                            0.0591 -0.0025 -0.0214 -0.0116 -0.1340
                                            0.0116 -0.0115  0.0979  0.0271
    87. (0.00106) RY*( 3) N   7           s(  1.63%)p59.61( 97.16%)d 0.74(  1.21%)
                                            0.0000 -0.0005  0.1052  0.0665 -0.0286
                                           -0.0005  0.0193  0.1064 -0.0048 -0.0473
                                            0.0520  0.0136  0.9735  0.0840 -0.0035
                                            0.1003  0.0419 -0.0163 -0.0029
    88. (0.00066) RY*( 4) N   7           s( 75.88%)p 0.11(  8.61%)d 0.20( 15.51%)
                                            0.0000  0.0126  0.8569  0.0463  0.1489
                                           -0.0404 -0.0854 -0.0136 -0.0438  0.0285
                                           -0.2485 -0.0067 -0.0697 -0.0873 -0.3595
                                            0.0632 -0.0776  0.0332  0.1215
    89. (0.00030) RY*( 5) N   7           s(  3.27%)p 4.98( 16.31%)d24.55( 80.42%)
                                            0.0000 -0.0008  0.1348  0.1132 -0.0421
                                           -0.0008  0.0284  0.1583 -0.0048 -0.0334
                                            0.2257 -0.0025  0.0572 -0.2861  0.0272
                                           -0.8913  0.0875 -0.0355 -0.0004
    90. (0.00025) RY*( 6) N   7           s(  8.28%)p 7.45( 61.67%)d 3.63( 30.05%)
                                            0.0000 -0.0004  0.2728  0.0552 -0.0732
                                            0.0251  0.0893  0.5480 -0.0234 -0.0958
                                            0.5247 -0.0061 -0.1431 -0.0469  0.3728
                                            0.2821 -0.1407  0.2445  0.0483
    91. (0.00015) RY*( 7) N   7           s( 17.93%)p 1.25( 22.45%)d 3.33( 59.62%)
                                            0.0000 -0.0132 -0.1543  0.3796  0.1059
                                           -0.0081 -0.0598  0.1134 -0.0181  0.0792
                                            0.1573  0.0104 -0.0571  0.4162 -0.4423
                                           -0.0661  0.3136  0.5305  0.1284
    92. (0.00011) RY*( 8) N   7           s( 16.93%)p 1.01( 17.02%)d 3.90( 66.05%)
                                            0.0000 -0.0128 -0.1441  0.3809 -0.0572
                                           -0.0315  0.0494  0.1595  0.0274  0.0419
                                            0.3153 -0.0063 -0.0500 -0.1920 -0.5205
                                            0.1816 -0.2024 -0.5402 -0.1542
    93. (0.00007) RY*( 9) N   7           s( 11.47%)p 4.45( 51.00%)d 3.27( 37.53%)
    94. (0.00003) RY*(10) N   7           s( 31.26%)p 1.34( 41.94%)d 0.86( 26.80%)
    95. (0.00002) RY*(11) N   7           s(  4.43%)p 0.89(  3.96%)d20.66( 91.60%)
    96. (0.00000) RY*(12) N   7           s(  0.04%)p99.99( 33.72%)d99.99( 66.25%)
    97. (0.00000) RY*(13) N   7           s( 38.72%)p 1.11( 43.14%)d 0.47( 18.13%)
    98. (0.00000) RY*(14) N   7           s( 89.41%)p 0.09(  8.16%)d 0.03(  2.43%)
    99. (0.00353) RY*( 1) N   8           s(  4.98%)p18.13( 90.36%)d 0.93(  4.65%)
                                            0.0000 -0.0081  0.2145  0.0599 -0.0142
                                           -0.0019  0.0237  0.0487 -0.0020 -0.5137
                                            0.0891  0.0446 -0.7733  0.1702 -0.0722
                                           -0.2002  0.0242  0.0116  0.0223
   100. (0.00273) RY*( 2) N   8           s(  0.30%)p99.99( 95.02%)d15.51(  4.68%)
                                            0.0000 -0.0066  0.0446 -0.0314  0.0006
                                           -0.0008  0.0004 -0.0124  0.0204  0.8022
                                           -0.2042  0.0106 -0.4998  0.1203  0.1591
                                           -0.1351  0.0442 -0.0169 -0.0318
   101. (0.00060) RY*( 3) N   8           s( 75.39%)p 0.25( 18.97%)d 0.07(  5.64%)
                                            0.0000 -0.0008  0.8661 -0.0467  0.0400
                                            0.0069  0.0432  0.2284 -0.0106 -0.0153
                                           -0.3065 -0.0016  0.2022 -0.0197  0.1465
                                            0.0346  0.0090  0.1834 -0.0046
   102. (0.00031) RY*( 4) N   8           s(  2.90%)p28.46( 82.39%)d 5.08( 14.72%)
                                            0.0000 -0.0165  0.1550  0.0156  0.0664
                                           -0.0335 -0.7317  0.3311  0.0117  0.1424
                                            0.3472 -0.0124 -0.0759 -0.1758 -0.2854
                                            0.1679 -0.0240 -0.1297 -0.1419
   103. (0.00009) RY*( 5) N   8           s( 11.30%)p 6.63( 74.93%)d 1.22( 13.77%)
   104. (0.00005) RY*( 6) N   8           s( 12.95%)p 4.28( 55.42%)d 2.44( 31.63%)
   105. (0.00005) RY*( 7) N   8           s( 25.97%)p 0.36(  9.41%)d 2.49( 64.62%)
   106. (0.00003) RY*( 8) N   8           s(  5.75%)p 9.54( 54.82%)d 6.86( 39.43%)
   107. (0.00000) RY*( 9) N   8           s( 93.92%)p 0.03(  2.49%)d 0.04(  3.59%)
   108. (0.00001) RY*(10) N   8           s( 55.96%)p 0.14(  7.91%)d 0.65( 36.13%)
   109. (0.00000) RY*(11) N   8           s(  0.13%)p99.99( 57.13%)d99.99( 42.74%)
   110. (0.00001) RY*(12) N   8           s(  5.21%)p 3.71( 19.33%)d14.48( 75.46%)
   111. (0.00001) RY*(13) N   8           s(  3.42%)p 2.94( 10.05%)d25.28( 86.53%)
   112. (0.00001) RY*(14) N   8           s(  1.89%)p11.57( 21.93%)d40.21( 76.18%)
   113. (0.00274) RY*( 1) H   9           s(100.00%)
                                            0.0070  1.0000
   114. (0.00082) RY*( 1) H  10           s(100.00%)
                                            0.0023  1.0000
   115. (0.08460) BD*( 1) C   1 - S   4  
                ( 47.01%)   0.6856* C   1 s( 29.35%)p 2.40( 70.53%)d 0.00(  0.12%)
                                           -0.0002  0.5399  0.0448 -0.0049 -0.0024
                                           -0.4595 -0.0383  0.0138 -0.7016 -0.0093
                                            0.0155 -0.0040  0.0012 -0.0005  0.0280
                                            0.0011  0.0000 -0.0117 -0.0161
                ( 52.99%)  -0.7280* S   4 s( 15.63%)p 5.36( 83.73%)d 0.04(  0.64%)
                                            0.0000  0.0002  0.3933 -0.0399  0.0071
                                            0.0004  0.0001  0.6218 -0.0507  0.0038
                                            0.0001  0.6689 -0.0214 -0.0016  0.0000
                                            0.0099 -0.0005 -0.0004  0.0684  0.0014
                                            0.0012 -0.0216 -0.0352
   116. (0.02173) BD*( 1) C   1 - N   7  
                ( 58.28%)   0.7634* C   1 s( 36.76%)p 1.72( 63.19%)d 0.00(  0.05%)
                                            0.0000  0.6058 -0.0232  0.0012  0.0031
                                           -0.3634 -0.0116  0.0076  0.7041 -0.0611
                                           -0.0054  0.0119  0.0004 -0.0001 -0.0131
                                           -0.0001  0.0000 -0.0130 -0.0118
                ( 41.72%)  -0.6459* N   7 s( 35.80%)p 1.79( 63.95%)d 0.01(  0.25%)
                                           -0.0001  0.5977 -0.0271  0.0020 -0.0014
                                            0.4403 -0.0291 -0.0060 -0.6667  0.0029
                                            0.0104  0.0104  0.0000  0.0005 -0.0255
                                           -0.0004 -0.0001 -0.0301 -0.0307
   117. (0.40177) BD*( 2) C   1 - N   7  
                ( 60.13%)   0.7754* C   1 s(  0.01%)p99.99( 99.90%)d 6.30(  0.09%)
                                            0.0001  0.0099  0.0055  0.0024  0.0017
                                            0.0233  0.0042 -0.0011 -0.0133 -0.0007
                                           -0.0001  0.9987  0.0201  0.0219 -0.0004
                                           -0.0197  0.0218  0.0001  0.0005
                ( 39.87%)  -0.6315* N   7 s(  0.01%)p 1.00( 99.74%)d 0.00(  0.26%)
                                           -0.0001 -0.0085  0.0039  0.0005 -0.0002
                                           -0.0078  0.0020  0.0009  0.0025 -0.0015
                                           -0.0015  0.9985 -0.0121  0.0100  0.0001
                                           -0.0111 -0.0493  0.0002  0.0004
   118. (0.02941) BD*( 1) C   1 - N   8  
                ( 59.16%)   0.7692* C   1 s( 33.70%)p 1.96( 66.19%)d 0.00(  0.10%)
                                           -0.0003  0.5795 -0.0349  0.0059 -0.0019
                                            0.8076 -0.0454 -0.0061 -0.0831 -0.0010
                                           -0.0004 -0.0255  0.0082 -0.0001 -0.0059
                                           -0.0018  0.0001  0.0280 -0.0143
                ( 40.84%)  -0.6390* N   8 s( 35.07%)p 1.85( 64.88%)d 0.00(  0.05%)
                                            0.0001  0.5922  0.0008 -0.0016 -0.0027
                                           -0.8027  0.0260  0.0096  0.0515  0.0012
                                           -0.0020  0.0324  0.0011  0.0004 -0.0038
                                           -0.0109 -0.0003  0.0149 -0.0134
   119. (0.02460) BD*( 1) C   2 - C   3  
                ( 50.79%)   0.7127* C   2 s( 37.60%)p 1.66( 62.35%)d 0.00(  0.05%)
                                            0.0000  0.6131 -0.0069 -0.0053  0.0020
                                           -0.2722  0.0362 -0.0052 -0.7400  0.0133
                                            0.0126 -0.0124 -0.0005 -0.0003  0.0086
                                            0.0001  0.0002 -0.0175 -0.0091
                ( 49.21%)  -0.7015* C   3 s( 39.10%)p 1.56( 60.86%)d 0.00(  0.04%)
                                            0.0001  0.6252 -0.0099  0.0046  0.0025
                                            0.2192  0.0207 -0.0128  0.7469 -0.0417
                                            0.0016 -0.0185 -0.0008 -0.0002  0.0135
                                           -0.0005 -0.0003 -0.0085 -0.0133
   120. (0.25829) BD*( 2) C   2 - C   3  
                ( 55.28%)   0.7435* C   2 s(  0.01%)p 1.00( 99.93%)d 0.00(  0.07%)
                                            0.0000  0.0079 -0.0010  0.0005 -0.0002
                                            0.0025  0.0002 -0.0008 -0.0111  0.0004
                                            0.0004  0.9988  0.0314  0.0240 -0.0002
                                           -0.0053 -0.0255 -0.0003  0.0001
                ( 44.72%)  -0.6688* C   3 s(  0.01%)p 1.00( 99.94%)d 0.00(  0.06%)
                                            0.0000  0.0070 -0.0006 -0.0005  0.0001
                                            0.0149  0.0003 -0.0007  0.0145  0.0000
                                            0.0004  0.9987  0.0344  0.0204  0.0003
                                            0.0172  0.0163  0.0003 -0.0004
   121. (0.01831) BD*( 1) C   2 - H   5  
                ( 37.56%)   0.6128* C   2 s( 33.18%)p 2.01( 66.76%)d 0.00(  0.05%)
                                            0.0004 -0.5758 -0.0170 -0.0032  0.0017
                                            0.4874  0.0174 -0.0076 -0.6554 -0.0087
                                            0.0067 -0.0040 -0.0003  0.0000  0.0194
                                            0.0002 -0.0003  0.0070  0.0112
                ( 62.44%)  -0.7902* H   5 s(100.00%)
                                           -1.0000 -0.0023
   122. (0.01195) BD*( 1) C   2 - N   7  
                ( 59.56%)   0.7717* C   2 s( 29.18%)p 2.42( 70.75%)d 0.00(  0.07%)
                                            0.0000  0.5398 -0.0201  0.0015 -0.0005
                                            0.8260 -0.0394 -0.0130  0.1408 -0.0595
                                            0.0124 -0.0048 -0.0002 -0.0001  0.0064
                                           -0.0001  0.0000  0.0214 -0.0147
                ( 40.44%)  -0.6360* N   7 s( 32.64%)p 2.06( 67.13%)d 0.01(  0.23%)
                                           -0.0004  0.5705 -0.0300 -0.0014  0.0019
                                           -0.8179  0.0172  0.0120 -0.0293 -0.0320
                                            0.0037 -0.0014  0.0002 -0.0003  0.0277
                                            0.0003 -0.0002  0.0262 -0.0293
   123. (0.01430) BD*( 1) C   3 - S   4  
                ( 48.95%)   0.6997* C   3 s( 24.65%)p 3.05( 75.21%)d 0.01(  0.14%)
                                            0.0002 -0.4961 -0.0112  0.0152  0.0017
                                           -0.6266 -0.0186  0.0195  0.5972 -0.0451
                                           -0.0033  0.0042 -0.0003 -0.0003  0.0290
                                            0.0002 -0.0002 -0.0087  0.0216
                ( 51.05%)  -0.7145* S   4 s( 18.00%)p 4.52( 81.38%)d 0.03(  0.62%)
[...]
 Sum of electronic and zero-point Energies=           -624.346631
 Sum of electronic and thermal Energies=              -624.341277
 Sum of electronic and thermal Enthalpies=            -624.340333
 Sum of electronic and thermal Free Energies=         -624.375523
 
                     E (Thermal)             CV                S
                      KCal/Mol        Cal/Mol-Kelvin    Cal/Mol-Kelvin
 Total                   48.616             20.046             74.065
 Electronic               0.000              0.000              0.000
 Translational            0.889              2.981             39.718
 Rotational               0.889              2.981             26.569
 Vibrational             46.839             14.085              7.777
 Vibration     1          0.663              1.763              1.730
 Vibration     2          0.686              1.692              1.473
 Vibration     3          0.739              1.541              1.095
 Vibration     4          0.866              1.227              0.633
 Vibration     5          0.914              1.121              0.526
 Vibration     6          0.943              1.062              0.475
                       Q            Log10(Q)             Ln(Q)
 Total Bot       0.130712D-19        -19.883683        -45.783872
 Total V=0       0.194828D+14         13.289652         30.600555
 Vib (Bot)       0.232609D-32        -32.633373        -75.141118
 Vib (Bot)    1  0.780373D+00         -0.107698         -0.247984
 Vib (Bot)    2  0.658791D+00         -0.181252         -0.417349
 Vib (Bot)    3  0.498145D+00         -0.302644         -0.696863
 Vib (Bot)    4  0.319003D+00         -0.496205         -1.142554
 Vib (Bot)    5  0.278537D+00         -0.555117         -1.278203
 Vib (Bot)    6  0.258529D+00         -0.587491         -1.352748
 Vib (V=0)       0.346707D+01          0.539962          1.243309
 Vib (V=0)    1  0.142681D+01          0.154367          0.355443
 Vib (V=0)    2  0.132705D+01          0.122886          0.282956
 Vib (V=0)    3  0.120580D+01          0.081274          0.187140
 Vib (V=0)    4  0.109310D+01          0.038658          0.089014
 Vib (V=0)    5  0.107235D+01          0.030336          0.069851
 Vib (V=0)    6  0.106288D+01          0.026485          0.060985
 Electronic      0.100000D+01          0.000000          0.000000
 Translational   0.393113D+08          7.594517         17.487022
 Rotational      0.142946D+06          5.155173         11.870223
 ***** Axes restored to original set *****
 -------------------------------------------------------------------
 Center     Atomic                   Forces (Hartrees/Bohr)
 Number     Number              X              Y              Z
 -------------------------------------------------------------------
      1        6          -0.000065822    0.000002050    0.000020821
      2        6          -0.000006064    0.000015510    0.000004967
      3        6           0.000001771   -0.000022110    0.000015793
      4       16          -0.000004004    0.000016328   -0.000025153
      5        1          -0.000000462   -0.000006841   -0.000002457
      6        1           0.000001039   -0.000008933   -0.000000192
      7        7           0.000040977   -0.000016586   -0.000031174
      8        7          -0.000026856    0.000014194   -0.000022697
      9        1           0.000038489    0.000028969    0.000017996
     10        1           0.000020933   -0.000022580    0.000022093
 -------------------------------------------------------------------
 Cartesian Forces:  Max     0.000065822 RMS     0.000022589

 GradGradGradGradGradGradGradGradGradGradGradGradGradGradGradGradGradGrad
 Berny optimization.
 Internal  Forces:  Max     0.000044589 RMS     0.000015023
 Search for a local minimum.
 Step number   1 out of a maximum of    2
 All quantities printed in internal units (Hartrees-Bohrs-Radians)
 Second derivative matrix not updated -- analytic derivatives used.
 ITU=  0
     Eigenvalues ---    0.00462   0.01316   0.01738   0.02431   0.03170
     Eigenvalues ---    0.03928   0.04832   0.09330   0.11446   0.12865
     Eigenvalues ---    0.13701   0.16014   0.18579   0.22654   0.24819
     Eigenvalues ---    0.29022   0.36927   0.37809   0.41919   0.45185
     Eigenvalues ---    0.46449   0.46748   0.49819   0.58134
 Angle between quadratic step and forces=  56.83 degrees.
 Linear search not attempted -- first point.
 Iteration  1 RMS(Cart)=  0.00023584 RMS(Int)=  0.00000004
 Iteration  2 RMS(Cart)=  0.00000005 RMS(Int)=  0.00000001
 Variable       Old X    -DE/DX   Delta X   Delta X   Delta X     New X
                                 (Linear)    (Quad)   (Total)
    R1        3.34147  -0.00001   0.00000  -0.00007  -0.00007   3.34140
    R2        2.46315  -0.00003   0.00000  -0.00005  -0.00005   2.46309
    R3        2.60846   0.00003   0.00000   0.00009   0.00009   2.60855
    R4        2.57260   0.00002   0.00000   0.00004   0.00004   2.57264
    R5        2.04902   0.00000   0.00000  -0.00001  -0.00001   2.04901
    R6        2.60969   0.00002   0.00000   0.00005   0.00005   2.60974
    R7        3.30935  -0.00002   0.00000  -0.00006  -0.00006   3.30929
    R8        2.04306   0.00000   0.00000   0.00001   0.00001   2.04307
    R9        1.91668   0.00004   0.00000   0.00010   0.00010   1.91677
   R10        1.91293   0.00004   0.00000   0.00009   0.00009   1.91301
    A1        2.00505   0.00001   0.00000   0.00004   0.00004   2.00510
    A2        2.11449   0.00000   0.00000  -0.00001  -0.00001   2.11448
    A3        2.16138  -0.00001   0.00000  -0.00003  -0.00003   2.16134
    A4        2.17585   0.00000   0.00000  -0.00001  -0.00001   2.17585
    A5        2.03661   0.00000   0.00000  -0.00002  -0.00002   2.03659
    A6        2.07067   0.00000   0.00000   0.00002   0.00002   2.07070
    A7        1.91181  -0.00001   0.00000  -0.00001  -0.00001   1.91181
    A8        2.25622   0.00001   0.00000   0.00005   0.00005   2.25628
    A9        2.11513   0.00000   0.00000  -0.00005  -0.00005   2.11508
   A10        1.54083   0.00000   0.00000   0.00001   0.00001   1.54084
   A11        1.93037  -0.00001   0.00000  -0.00003  -0.00003   1.93034
   A12        1.97118   0.00003   0.00000   0.00012   0.00012   1.97131
   A13        2.04092   0.00000   0.00000  -0.00009  -0.00009   2.04083
   A14        1.97789  -0.00002   0.00000  -0.00020  -0.00020   1.97770
    D1       -0.00926  -0.00002   0.00000  -0.00041  -0.00041  -0.00968
    D2       -3.08132  -0.00001   0.00000  -0.00041  -0.00041  -3.08173
    D3        0.00379   0.00002   0.00000   0.00041   0.00041   0.00420
    D4        3.07373   0.00001   0.00000   0.00041   0.00041   3.07414
    D5       -2.93915   0.00000   0.00000   0.00040   0.00040  -2.93875
    D6       -0.59668   0.00000   0.00000   0.00013   0.00013  -0.59655
    D7        0.27840   0.00000   0.00000   0.00040   0.00040   0.27880
    D8        2.62087   0.00000   0.00000   0.00013   0.00013   2.62100
    D9        3.13949  -0.00001   0.00000  -0.00014  -0.00014   3.13935
   D10       -0.00892   0.00000   0.00000   0.00008   0.00008  -0.00884
   D11       -0.01299  -0.00001   0.00000  -0.00013  -0.00013  -0.01311
   D12        3.12179   0.00000   0.00000   0.00009   0.00009   3.12188
   D13        0.00619  -0.00001   0.00000  -0.00018  -0.00018   0.00601
   D14        3.13759  -0.00001   0.00000  -0.00017  -0.00017   3.13741
   D15        0.01183   0.00001   0.00000   0.00028   0.00028   0.01211
   D16       -3.12360   0.00001   0.00000   0.00009   0.00009  -3.12351
         Item               Value     Threshold  Converged?
 Maximum Force            0.000045     0.000450     YES
 RMS     Force            0.000015     0.000300     YES
 Maximum Displacement     0.000744     0.001800     YES
 RMS     Displacement     0.000236     0.001200     YES
 Predicted change in Energy=-3.024085D-08
 Optimization completed.
    -- Stationary point found.
                           ----------------------------
                           !   Optimized Parameters   !
                           ! (Angstroms and Degrees)  !
 --------------------------                            --------------------------
 ! Name  Definition              Value          Derivative Info.                !
 --------------------------------------------------------------------------------
 ! R1    R(1,4)                  1.7682         -DE/DX =    0.0                 !
 ! R2    R(1,7)                  1.3034         -DE/DX =    0.0                 !
 ! R3    R(1,8)                  1.3803         -DE/DX =    0.0                 !
 ! R4    R(2,3)                  1.3614         -DE/DX =    0.0                 !
 ! R5    R(2,5)                  1.0843         -DE/DX =    0.0                 !
 ! R6    R(2,7)                  1.381          -DE/DX =    0.0                 !
 ! R7    R(3,4)                  1.7512         -DE/DX =    0.0                 !
 ! R8    R(3,6)                  1.0811         -DE/DX =    0.0                 !
 ! R9    R(8,9)                  1.0143         -DE/DX =    0.0                 !
 ! R10   R(8,10)                 1.0123         -DE/DX =    0.0                 !
 ! A1    A(4,1,7)              114.8812         -DE/DX =    0.0                 !
 ! A2    A(4,1,8)              121.1515         -DE/DX =    0.0                 !
 ! A3    A(7,1,8)              123.8379         -DE/DX =    0.0                 !
 ! A4    A(3,2,5)              124.6672         -DE/DX =    0.0                 !
 ! A5    A(3,2,7)              116.6891         -DE/DX =    0.0                 !
 ! A6    A(5,2,7)              118.6409         -DE/DX =    0.0                 !
 ! A7    A(2,3,4)              109.5389         -DE/DX =    0.0                 !
 ! A8    A(2,3,6)              129.2721         -DE/DX =    0.0                 !
 ! A9    A(4,3,6)              121.1879         -DE/DX =    0.0                 !
 ! A10   A(1,4,3)               88.2832         -DE/DX =    0.0                 !
 ! A11   A(1,7,2)              110.602          -DE/DX =    0.0                 !
 ! A12   A(1,8,9)              112.9406         -DE/DX =    0.0                 !
 ! A13   A(1,8,10)             116.9361         -DE/DX =    0.0                 !
 ! A14   A(9,8,10)             113.325          -DE/DX =    0.0                 !
 ! D1    D(7,1,4,3)             -0.5306         -DE/DX =    0.0                 !
 ! D2    D(8,1,4,3)           -176.5465         -DE/DX =    0.0                 !
 ! D3    D(4,1,7,2)              0.2169         -DE/DX =    0.0                 !
 ! D4    D(8,1,7,2)            176.1117         -DE/DX =    0.0                 !
 ! D5    D(4,1,8,9)           -168.4011         -DE/DX =    0.0                 !
 ! D6    D(4,1,8,10)           -34.1875         -DE/DX =    0.0                 !
 ! D7    D(7,1,8,9)             15.9511         -DE/DX =    0.0                 !
 ! D8    D(7,1,8,10)           150.1647         -DE/DX =    0.0                 !
 ! D9    D(5,2,3,4)            179.8794         -DE/DX =    0.0                 !
 ! D10   D(5,2,3,6)             -0.5108         -DE/DX =    0.0                 !
 ! D11   D(7,2,3,4)             -0.7442         -DE/DX =    0.0                 !
 ! D12   D(7,2,3,6)            178.8656         -DE/DX =    0.0                 !
 ! D13   D(3,2,7,1)              0.3548         -DE/DX =    0.0                 !
 ! D14   D(5,2,7,1)            179.7704         -DE/DX =    0.0                 !
 ! D15   D(2,3,4,1)              0.6779         -DE/DX =    0.0                 !
 ! D16   D(6,3,4,1)           -178.969          -DE/DX =    0.0                 !
 --------------------------------------------------------------------------------
 GradGradGradGradGradGradGradGradGradGradGradGradGradGradGradGradGradGrad

 1\1\GINC-LOCALHOST\Freq\RB3LYP\6-31+G(d)\C3H4N2S1\PVBHARATAM\14-Mar-20
 01\0\\#N Geom=AllCheck Guess=TCheck SCRF=Check GenChk RB3LYP/6-31+G(d)
  Freq\\ATZ\\0,1\C,0.7798501866,0.2115275543,0.001837529\C,-1.211304920
 7,1.1645038169,0.0033857208\C,-1.6480486138,-0.1248877345,0.0086261909
 \S,-0.2729079736,-1.2091261481,-0.0067953206\H,-1.8580619551,2.0347776
 33,0.0086862747\H,-2.6601875664,-0.5045508482,0.0259246216\N,0.1563207
 834,1.3561536101,0.003808272\N,2.1520660701,0.0838880739,-0.076048979\
 H,2.6416477167,0.9490149977,0.12542087\H,2.5637622726,-0.7238569551,0.
 3742388206\\Version=EM64L-G09RevB.01\State=1-A\HF=-624.4187517\RMSD=1.
 983e-09\RMSF=2.259e-05\ZeroPoint=0.0721211\Thermal=0.0774749\Dipole=0.
 2954758,-0.4675271,0.3945742\DipoleDeriv=1.6597727,0.1198378,-0.066957
 ,-0.0797116,0.8728421,0.0328652,-0.0767166,0.0294352,0.0480467,0.50114
 92,0.0650222,-0.0064027,0.0666253,0.1619428,0.0006411,-0.0064802,-0.00
 27114,-0.0530652,-0.0921367,-0.2350492,-0.0037389,-0.204558,0.058313,-
 0.0042909,0.0005444,-0.0044673,-0.3162225,-0.1452003,-0.0097502,-0.001
 5146,-0.2948579,-0.3384537,0.0192771,0.0028074,-0.0004464,0.1202368,0.
 0246471,0.0385116,0.0003486,0.1050379,-0.0195027,-0.0007541,0.0005782,
 -0.0019356,0.1621907,-0.0137671,-0.0171238,0.0019309,0.0081083,0.07085
 32,0.0011892,0.0028697,0.0073663,0.2040671,-0.8964143,0.0071482,0.0146
 601,0.3890942,-0.8695475,-0.0252547,-0.0290763,-0.0009373,-0.2522221,-
 1.4727724,0.050634,0.098392,0.0679239,-0.2453258,-0.0662923,0.4300446,
 -0.0775152,-0.4609337,0.2073421,0.0328999,-0.0293114,0.0266341,0.15302
 02,-0.0173712,-0.1401849,-0.0365184,0.2899305,0.2273796,-0.0521304,-0.
 0074071,-0.0842962,0.1558584,0.0599907,-0.1843863,0.0877301,0.2579716\
 Polar=82.6824368,0.5074185,74.5051792,-0.3607654,-0.0402315,42.6681166
 \PG=C01 [X(C3H4N2S1)]\NImag=0\\0.74001805,-0.14689786,0.56530164,-0.00
 339869,-0.00646350,0.12824561,-0.06710087,0.07424585,-0.00083379,0.624
 89090,0.03659500,-0.00791633,-0.00161322,-0.06994924,0.81209105,0.0014
 9018,0.00013877,0.00311037,-0.00236651,0.00059542,0.13067846,-0.038127
 99,-0.03103165,-0.00111965,-0.11840881,-0.10304843,0.00136947,0.653915
 74,-0.00399117,-0.01059651,0.00254013,-0.08500456,-0.39954397,0.000739
 82,0.19033896,0.61662414,0.00036932,-0.00059334,0.01050920,0.00166948,
 0.00193706,-0.05384557,-0.00772001,-0.00331578,0.07285509,-0.07501464,
 -0.04427899,0.00178352,-0.01705871,0.03732765,-0.00073001,-0.11454710,
 0.07184550,0.00077172,0.23510854,-0.02113434,-0.08080706,-0.00136039,-
 0.00601894,-0.05992580,-0.00089288,0.04258724,-0.08398237,-0.00071186,
 -0.02529086,0.28934128,-0.00034149,-0.00054644,-0.04039895,-0.00022734
 ,0.00005096,0.00741004,0.00145265,-0.00157120,-0.02751279,-0.00179187,
 0.00204159,0.03471256,-0.00611390,-0.00106792,-0.00001513,-0.15092620,
 0.13455476,0.00085270,0.00936446,-0.00827673,0.00000202,0.00171411,-0.
 00314472,0.00007975,0.16748173,-0.00259037,0.00065786,-0.00005388,0.14
 074824,-0.25104425,-0.00115332,0.01665683,-0.01552718,-0.00016302,-0.0
 0017506,-0.00295288,0.00006138,-0.14882491,0.25838578,-0.00017660,-0.0
 0010664,0.00231773,0.00096503,-0.00124385,-0.03311712,-0.00007566,0.00
 022149,0.00493886,0.00027287,0.00011681,0.00691754,-0.00104447,0.00126
 096,0.02329833,-0.00150993,0.00226224,0.00026106,-0.00101450,0.0022650
 5,-0.00001822,-0.32544707,-0.10505201,0.00506964,-0.01010702,-0.005463
 41,0.00001592,0.00009639,-0.00050918,-0.00005715,0.33664834,0.00463333
 ,-0.00786387,-0.00023798,-0.02479948,0.00311106,0.00041344,-0.10366023
 ,-0.08931384,0.00204601,0.01775135,0.00665350,-0.00011974,0.00067625,0
 .00048004,-0.00003943,0.10873211,0.08786131,-0.00139354,0.00018677,-0.
 00107347,-0.00033101,-0.00037143,-0.00128993,0.00529416,0.00262840,-0.
 01800512,0.00042319,0.00008664,-0.00237297,-0.00004796,-0.00000592,-0.
 00370016,-0.00531485,-0.00207636,0.01653221,-0.18277610,0.13086884,0.0
 0197929,-0.26953139,-0.03375965,0.00035742,-0.05436314,-0.06655327,-0.
 00038825,-0.00031376,0.03102702,0.00016202,-0.02063110,-0.00500836,-0.
 00003293,0.00127657,-0.00392400,0.00033348,0.55716624,0.13063200,-0.35
 177542,0.00191794,-0.02472899,-0.09243193,-0.00005412,-0.01246835,-0.0
 1212097,0.00032103,-0.02970536,-0.07204997,-0.00016292,0.02433156,0.00
 943514,-0.00011333,-0.00132315,-0.00337870,-0.00022297,-0.11147417,0.5
 2838665,-0.00110092,0.00105951,-0.06309295,0.00147063,-0.00091468,-0.0
 5938368,-0.00068648,0.00017116,0.01162583,0.00039087,-0.00054146,0.017
 67364,0.00027867,0.00007577,-0.00150643,0.00014072,-0.00006423,0.00788
 201,-0.00256857,0.00131584,0.08407862,-0.33398618,0.01920340,0.0254263
 1,0.00048463,-0.00535776,-0.00211658,-0.01171403,0.00688415,-0.0000738
 4,-0.01625374,-0.01401397,0.00123739,-0.00068760,-0.00013781,0.0000021
 8,0.00004308,0.00028995,0.00079476,-0.03057540,0.02749947,0.00282739,0
 .66018931,0.00153687,-0.11651156,0.00775806,-0.00482671,-0.00452287,-0
 .00046034,0.00070870,-0.00527336,0.00089343,-0.02742501,0.00351866,0.0
 0000292,0.00182709,0.00060007,-0.00016509,-0.00106026,0.00241760,0.000
 09527,0.05694313,-0.00641057,-0.00199636,0.00786136,0.77404329,-0.0174
 6840,0.01225547,-0.03428059,-0.00128389,0.00315862,0.00577502,0.003510
 71,-0.00345697,-0.00065823,-0.00148275,0.00432887,0.00223476,-0.000126
 14,0.00000717,0.00080163,-0.00033317,0.00023991,0.00143282,-0.00084362
 ,-0.00618942,0.00344707,0.14097975,-0.09724787,0.14410376,-0.02373000,
 -0.03726151,-0.00831975,-0.00117599,0.00021843,0.00045963,-0.00024828,
 -0.00098612,-0.00006849,-0.00321374,0.00236445,-0.00014174,0.00019613,
 0.00004438,0.00004111,-0.00013909,0.00060202,0.00002449,0.00534201,-0.
 00081044,0.00064285,-0.14517087,-0.14566833,-0.04653005,0.15735709,-0.
 00143629,0.00780803,0.00002542,0.00020596,0.00017836,0.00089952,0.0012
 8894,-0.00076291,0.00002427,0.00095455,0.00110791,-0.00018441,0.000056
 44,-0.00000515,-0.00004493,0.00013444,-0.00005391,-0.00008785,0.001484
 78,-0.00072906,-0.00069149,-0.15297910,-0.34294441,-0.05430723,0.16568
 041,0.35268219,0.01103766,0.00265785,-0.00036485,-0.00020353,-0.000165
 24,-0.00191724,-0.00035851,0.00073175,0.00084576,0.00054251,-0.0011815
 1,0.00009896,-0.00006402,-0.00000753,-0.00007838,0.00006971,-0.0000266
 7,0.00114318,-0.00083884,0.00172166,-0.00108918,-0.07003964,-0.0836515
 7,-0.02994971,0.04823556,0.06421932,0.03010023,-0.01165845,0.03395760,
 -0.01576318,-0.00015905,0.00115419,0.00070194,-0.00042377,0.00079525,0
 .00036840,-0.00031393,-0.00091248,-0.00044529,-0.00049403,-0.00020376,
 0.00010562,0.00015323,-0.00030130,0.00021729,-0.00559391,-0.00195255,-
 0.00139514,-0.12232921,0.11010315,-0.07642244,0.01078274,-0.01539013,0
 .01161911,0.13003639,0.00265283,0.00170321,-0.00251258,0.00012786,0.00
 000468,-0.00022632,-0.00137202,0.00049697,-0.00043779,-0.00100376,-0.0
 0090327,0.00042786,-0.00013182,-0.00002942,0.00011402,0.00001418,0.000
 08682,-0.00023256,0.00039569,0.00107483,0.00158595,0.11075030,-0.30491
 683,0.14121143,0.01581671,-0.01728104,0.01570195,-0.12724997,0.3197640
 5,0.01098249,-0.00858845,-0.00497209,0.00114093,-0.00143365,0.00257966
 ,-0.00166668,0.00131118,-0.00075302,-0.00018004,-0.00188580,0.00123720
 ,0.00008458,-0.00002160,0.00012801,0.00016636,-0.00013495,-0.00054857,
 0.00184001,0.00146629,0.00036506,-0.09903772,0.17477156,-0.09290652,0.
 00565638,-0.00985264,0.00121123,0.08101368,-0.15563196,0.09365905\\0.0
 0006582,-0.00000205,-0.00002082,0.00000606,-0.00001551,-0.00000497,-0.
 00000177,0.00002211,-0.00001579,0.00000400,-0.00001633,0.00002515,0.00
 000046,0.00000684,0.00000246,-0.00000104,0.00000893,0.00000019,-0.0000
 4098,0.00001659,0.00003117,0.00002686,-0.00001419,0.00002270,-0.000038
 49,-0.00002897,-0.00001800,-0.00002093,0.00002258,-0.00002209\\\@


 GARLIC THEN HAVE POWER TO SAVE FROM DEATH
 BEAR WITH IT THOUGH IT MAKETH UNSAVORY BREATH,
 AND SCORN NOT GARLIC LIKE SOME THAT THINK
 IT ONLY MAKETH MEN WINK AND DRINK AND STINK.
   --  SIR JOHN HARRINGTON,
       "THE ENGLISHMAN'S DOCTOR", 1609
 Job cpu time:  0 days  0 hours  6 minutes 44.5 seconds.
 File lengths (MBytes):  RWF=     24 Int=      0 D2E=      0 Chk=      2 Scr=      1
 Normal termination of Gaussian 09 at Wed Mar 14 05:46:24 2001.
