 Entering Gaussian System, Link 0=g09
 Input=ATZ-1.gjf
 Output=ATZ-1.log
 Initial command:
 /home/pvbharatam/guass/g09/l1.exe /home/pvbharatam/GAUSS_SCRDIR/Gau-485.inp -scrdir=/home/pvbharatam/GAUSS_SCRDIR/
 Entering Link 1 = /home/pvbharatam/guass/g09/l1.exe PID=       486.
  
 Copyright (c) 1988,1990,1992,1993,1995,1998,2003,2009,2010,
            Gaussian, Inc.  All Rights Reserved.
  
 This is part of the Gaussian(R) 09 program.  It is based on
 the Gaussian(R) 03 system (copyright 2003, Gaussian, Inc.),
 the Gaussian(R) 98 system (copyright 1998, Gaussian, Inc.),
 the Gaussian(R) 94 system (copyright 1995, Gaussian, Inc.),
 the Gaussian 92(TM) system (copyright 1992, Gaussian, Inc.),
 the Gaussian 90(TM) system (copyright 1990, Gaussian, Inc.),
 the Gaussian 88(TM) system (copyright 1988, Gaussian, Inc.),
 the Gaussian 86(TM) system (copyright 1986, Carnegie Mellon
 University), and the Gaussian 82(TM) system (copyright 1983,
 Carnegie Mellon University). Gaussian is a federally registered
 trademark of Gaussian, Inc.
  
 This software contains proprietary and confidential information,
 including trade secrets, belonging to Gaussian, Inc.
  
 This software is provided under written license and may be
 used, copied, transmitted, or stored only in accord with that
 written license.
  
 The following legend is applicable only to US Government
 contracts under FAR:
  
                    RESTRICTED RIGHTS LEGEND
  
 Use, reproduction and disclosure by the US Government is
 subject to restrictions as set forth in subparagraphs (a)
 and (c) of the Commercial Computer Software - Restricted
 Rights clause in FAR 52.227-19.
  
 Gaussian, Inc.
 340 Quinnipiac St., Bldg. 40, Wallingford CT 06492
  
  
 ---------------------------------------------------------------
 Warning -- This program may not be used in any manner that
 competes with the business of Gaussian, Inc. or will provide
 assistance to any competitor of Gaussian, Inc.  The licensee
 of this program is prohibited from giving any competitor of
 Gaussian, Inc. access to this program.  By using this program,
 the user acknowledges that Gaussian, Inc. is engaged in the
 business of creating and licensing software in the field of
 computational chemistry and represents and warrants to the
 licensee that it is not a competitor of Gaussian, Inc. and that
 it will not use this program in any manner prohibited above.
 ---------------------------------------------------------------
  

 Cite this work as:
 Gaussian 09, Revision B.01,
 M. J. Frisch, G. W. Trucks, H. B. Schlegel, G. E. Scuseria, 
 M. A. Robb, J. R. Cheeseman, G. Scalmani, V. Barone, B. Mennucci, 
 G. A. Petersson, H. Nakatsuji, M. Caricato, X. Li, H. P. Hratchian, 
 A. F. Izmaylov, J. Bloino, G. Zheng, J. L. Sonnenberg, M. Hada, 
 M. Ehara, K. Toyota, R. Fukuda, J. Hasegawa, M. Ishida, T. Nakajima, 
 Y. Honda, O. Kitao, H. Nakai, T. Vreven, J. A. Montgomery, Jr., 
 J. E. Peralta, F. Ogliaro, M. Bearpark, J. J. Heyd, E. Brothers, 
 K. N. Kudin, V. N. Staroverov, T. Keith, R. Kobayashi, J. Normand, 
 K. Raghavachari, A. Rendell, J. C. Burant, S. S. Iyengar, J. Tomasi, 
 M. Cossi, N. Rega, J. M. Millam, M. Klene, J. E. Knox, J. B. Cross, 
 V. Bakken, C. Adamo, J. Jaramillo, R. Gomperts, R. E. Stratmann, 
 O. Yazyev, A. J. Austin, R. Cammi, C. Pomelli, J. W. Ochterski, 
 R. L. Martin, K. Morokuma, V. G. Zakrzewski, G. A. Voth, 
 P. Salvador, J. J. Dannenberg, S. Dapprich, A. D. Daniels, 
 O. Farkas, J. B. Foresman, J. V. Ortiz, J. Cioslowski, 
 and D. J. Fox, Gaussian, Inc., Wallingford CT, 2010.
 
 ******************************************
 Gaussian 09:  EM64L-G09RevB.01 12-Aug-2010
                14-Mar-2001 
 ******************************************
 %nprocshared=4
 Will use up to    4 processors via shared memory.
 %mem=4GB
 %chk=ATZ-1.chk
 -------------------------
 # b3lyp/6-31+g(d) pop=nbo
 -------------------------
 1/38=1/1;
 2/12=2,17=6,18=5,40=1/2;
 3/5=1,6=6,7=11,11=2,16=1,25=1,30=1,74=-5/1,2,3;
 4//1;
 5/5=2,38=5/2;
 6/7=2,8=2,9=2,10=2,28=1/1,7;
 99/5=1,9=1/99;
 -----
 ATZ-1
 -----
 Symbolic Z-matrix:
 Charge = -1 Multiplicity = 2
 C                     0.77981   0.21157   0.00178 
 C                    -1.21131   1.16461   0.00333 
 C                    -1.6481   -0.12476   0.00857 
 S                    -0.273    -1.20905  -0.00685 
 H                    -1.85804   2.03491   0.00863 
 H                    -2.66025  -0.50439   0.02587 
 N                     0.15632   1.35622   0.00375 
 N                     2.15202   0.08388  -0.07611 
 H                     2.64164   0.94899   0.12536 
 H                     2.56369  -0.72388   0.37418 
 
                          Input orientation:                          
 ---------------------------------------------------------------------
 Center     Atomic      Atomic             Coordinates (Angstroms)
 Number     Number       Type             X           Y           Z
 ---------------------------------------------------------------------
      1          6           0        0.779813    0.211567    0.001781
      2          6           0       -1.211308    1.164614    0.003329
      3          6           0       -1.648098   -0.124763    0.008569
      4         16           0       -0.272995   -1.209050   -0.006852
      5          1           0       -1.858035    2.034910    0.008629
      6          1           0       -2.660250   -0.504390    0.025868
      7          7           0        0.156324    1.356215    0.003751
      8          7           0        2.152024    0.083879   -0.076106
      9          1           0        2.641637    0.948989    0.125364
     10          1           0        2.563692   -0.723881    0.374182
 ---------------------------------------------------------------------
                    Distance matrix (angstroms):
                    1          2          3          4          5
     1  C    0.000000
     2  C    2.207456   0.000000
     3  C    2.451105   1.361362   0.000000
     4  S    1.768228   2.552414   1.751235   0.000000
     5  H    3.206691   1.084297   2.169853   3.610522   0.000000
     6  H    3.513859   2.210320   1.081142   2.489298   2.663060
     7  N    1.303442   1.380988   2.334365   2.600964   2.125628
     8  N    1.380338   3.533596   3.806787   2.749032   4.460300
     9  H    2.006353   3.860903   4.423620   3.629007   4.630324
    10  H    2.048407   4.237283   4.269870   2.902993   5.224579
                    6          7          8          9         10
     6  H    0.000000
     7  N    3.375712   0.000000
     8  N    4.849169   2.368129   0.000000
     9  H    5.498383   2.521389   1.014261   0.000000
    10  H    5.240140   3.203036   1.012278   1.693068   0.000000
 Stoichiometry    C3H4N2S(1-,2)
 Framework group  C1[X(C3H4N2S)]
 Deg. of freedom    24
 Full point group                 C1      NOp   1
 Largest Abelian subgroup         C1      NOp   1
 Largest concise Abelian subgroup C1      NOp   1
                         Standard orientation:                         
 ---------------------------------------------------------------------
 Center     Atomic      Atomic             Coordinates (Angstroms)
 Number     Number       Type             X           Y           Z
 ---------------------------------------------------------------------
      1          6           0        0.779813    0.211567    0.001781
      2          6           0       -1.211308    1.164614    0.003329
      3          6           0       -1.648098   -0.124763    0.008569
      4         16           0       -0.272995   -1.209050   -0.006852
      5          1           0       -1.858035    2.034910    0.008629
      6          1           0       -2.660250   -0.504390    0.025868
      7          7           0        0.156324    1.356215    0.003751
      8          7           0        2.152024    0.083879   -0.076106
      9          1           0        2.641637    0.948989    0.125364
     10          1           0        2.563692   -0.723881    0.374182
 ---------------------------------------------------------------------
 Rotational constants (GHZ):      5.2864162      3.3774164      2.0646501
 Standard basis: 6-31+G(d) (6D, 7F)
 There are   126 symmetry adapted basis functions of A   symmetry.
 Integral buffers will be    131072 words long.
 Raffenetti 2 integral format.
 Two-electron integral symmetry is turned on.
   126 basis functions,   232 primitive gaussians,   126 cartesian basis functions
    27 alpha electrons       26 beta electrons
       nuclear repulsion energy       277.3446279349 Hartrees.
 NAtoms=   10 NActive=   10 NUniq=   10 SFac= 1.00D+00 NAtFMM=   50 NAOKFM=F Big=F
 One-electron integrals computed using PRISM.
 NBasis=   126 RedAO= T  NBF=   126
 NBsUse=   126 1.00D-06 NBFU=   126
 Harris functional with IExCor=  402 diagonalized for initial guess.
 ExpMin= 4.05D-02 ExpMax= 2.19D+04 ExpMxC= 3.30D+03 IAcc=2 IRadAn=         0 AccDes= 0.00D+00
 HarFok:  IExCor=  402 AccDes= 0.00D+00 IRadAn=         0 IDoV= 1
 ScaDFX=  1.000000  1.000000  1.000000  1.000000
 FoFCou: FMM=F IPFlag=           0 FMFlag=      100000 FMFlg1=           0
         NFxFlg=           0 DoJE=T BraDBF=F KetDBF=T FulRan=T
         Omega=  0.000000  0.000000  1.000000  0.000000  0.000000 ICntrl=     500 IOpCl=  0
         NMat0=    1 NMatS0=    1 NMatT0=    0 NMatD0=    1 NMtDS0=    0 NMtDT0=    0
         I1Cent=           4 NGrid=           0.
 Petite list used in FoFCou.
 Initial guess orbital symmetries:
 Alpha Orbitals:
       Occupied  (A) (A) (A) (A) (A) (A) (A) (A) (A) (A) (A) (A)
                 (A) (A) (A) (A) (A) (A) (A) (A) (A) (A) (A) (A)
                 (A) (A) (A)
       Virtual   (A) (A) (A) (A) (A) (A) (A) (A) (A) (A) (A) (A)
                 (A) (A) (A) (A) (A) (A) (A) (A) (A) (A) (A) (A)
                 (A) (A) (A) (A) (A) (A) (A) (A) (A) (A) (A) (A)
                 (A) (A) (A) (A) (A) (A) (A) (A) (A) (A) (A) (A)
                 (A) (A) (A) (A) (A) (A) (A) (A) (A) (A) (A) (A)
                 (A) (A) (A) (A) (A) (A) (A) (A) (A) (A) (A) (A)
                 (A) (A) (A) (A) (A) (A) (A) (A) (A) (A) (A) (A)
                 (A) (A) (A) (A) (A) (A) (A) (A) (A) (A) (A) (A)
                 (A) (A) (A)
 Beta  Orbitals:
       Occupied  (A) (A) (A) (A) (A) (A) (A) (A) (A) (A) (A) (A)
                 (A) (A) (A) (A) (A) (A) (A) (A) (A) (A) (A) (A)
                 (A) (A)
       Virtual   (A) (A) (A) (A) (A) (A) (A) (A) (A) (A) (A) (A)
                 (A) (A) (A) (A) (A) (A) (A) (A) (A) (A) (A) (A)
                 (A) (A) (A) (A) (A) (A) (A) (A) (A) (A) (A) (A)
                 (A) (A) (A) (A) (A) (A) (A) (A) (A) (A) (A) (A)
                 (A) (A) (A) (A) (A) (A) (A) (A) (A) (A) (A) (A)
                 (A) (A) (A) (A) (A) (A) (A) (A) (A) (A) (A) (A)
                 (A) (A) (A) (A) (A) (A) (A) (A) (A) (A) (A) (A)
                 (A) (A) (A) (A) (A) (A) (A) (A) (A) (A) (A) (A)
                 (A) (A) (A) (A)
 The electronic state of the initial guess is 2-A.
 Initial guess <Sx>= 0.0000 <Sy>= 0.0000 <Sz>= 0.5000 <S**2>= 0.7500 S= 0.5000
 Requested convergence on RMS density matrix=1.00D-08 within 128 cycles.
 Requested convergence on MAX density matrix=1.00D-06.
 Requested convergence on             energy=1.00D-06.
 No special actions if energy rises.
 Keep R1 and R2 ints in memory in canonical form, NReq=65201138.
 SCF Done:  E(UB3LYP) =  -624.384608232     A.U. after   34 cycles
             Convg  =    0.3177D-08             -V/T =  2.0053
 <Sx>= 0.0000 <Sy>= 0.0000 <Sz>= 0.5000 <S**2>= 0.7506 S= 0.5003
 <L.S>= 0.000000000000E+00
 Annihilation of the first spin contaminant:
 S**2 before annihilation     0.7506,   after     0.7500

 **********************************************************************

            Population analysis using the SCF density.

 **********************************************************************

 Orbital symmetries:
 Alpha Orbitals:
       Occupied  (A) (A) (A) (A) (A) (A) (A) (A) (A) (A) (A) (A)
                 (A) (A) (A) (A) (A) (A) (A) (A) (A) (A) (A) (A)
                 (A) (A) (A)
       Virtual   (A) (A) (A) (A) (A) (A) (A) (A) (A) (A) (A) (A)
                 (A) (A) (A) (A) (A) (A) (A) (A) (A) (A) (A) (A)
                 (A) (A) (A) (A) (A) (A) (A) (A) (A) (A) (A) (A)
                 (A) (A) (A) (A) (A) (A) (A) (A) (A) (A) (A) (A)
                 (A) (A) (A) (A) (A) (A) (A) (A) (A) (A) (A) (A)
                 (A) (A) (A) (A) (A) (A) (A) (A) (A) (A) (A) (A)
                 (A) (A) (A) (A) (A) (A) (A) (A) (A) (A) (A) (A)
                 (A) (A) (A) (A) (A) (A) (A) (A) (A) (A) (A) (A)
                 (A) (A) (A)
 Beta  Orbitals:
       Occupied  (A) (A) (A) (A) (A) (A) (A) (A) (A) (A) (A) (A)
                 (A) (A) (A) (A) (A) (A) (A) (A) (A) (A) (A) (A)
                 (A) (A)
       Virtual   (A) (A) (A) (A) (A) (A) (A) (A) (A) (A) (A) (A)
                 (A) (A) (A) (A) (A) (A) (A) (A) (A) (A) (A) (A)
                 (A) (A) (A) (A) (A) (A) (A) (A) (A) (A) (A) (A)
                 (A) (A) (A) (A) (A) (A) (A) (A) (A) (A) (A) (A)
                 (A) (A) (A) (A) (A) (A) (A) (A) (A) (A) (A) (A)
                 (A) (A) (A) (A) (A) (A) (A) (A) (A) (A) (A) (A)
                 (A) (A) (A) (A) (A) (A) (A) (A) (A) (A) (A) (A)
                 (A) (A) (A) (A) (A) (A) (A) (A) (A) (A) (A) (A)
                 (A) (A) (A) (A)
 The electronic state is 2-A.
 Alpha  occ. eigenvalues --  -88.76712 -14.20097 -14.18325 -10.13742 -10.08165
 Alpha  occ. eigenvalues --  -10.06948  -7.82679  -5.79090  -5.78763  -5.78352
 Alpha  occ. eigenvalues --   -0.83153  -0.75076  -0.65040  -0.58109  -0.45572
 Alpha  occ. eigenvalues --   -0.42815  -0.37012  -0.35559  -0.30798  -0.27394
 Alpha  occ. eigenvalues --   -0.26332  -0.22102  -0.17535  -0.13758  -0.13502
 Alpha  occ. eigenvalues --   -0.07062   0.08380
 Alpha virt. eigenvalues --    0.10925   0.12398   0.12999   0.14410   0.15338
 Alpha virt. eigenvalues --    0.17347   0.17566   0.17700   0.19188   0.19685
 Alpha virt. eigenvalues --    0.20570   0.21026   0.21760   0.24315   0.25093
 Alpha virt. eigenvalues --    0.25465   0.26055   0.27931   0.29049   0.29325
 Alpha virt. eigenvalues --    0.30792   0.31601   0.32714   0.33039   0.34464
 Alpha virt. eigenvalues --    0.36655   0.38751   0.39876   0.43425   0.43815
 Alpha virt. eigenvalues --    0.44707   0.45836   0.47318   0.53102   0.62056
 Alpha virt. eigenvalues --    0.62854   0.64158   0.65958   0.69006   0.75155
 Alpha virt. eigenvalues --    0.76019   0.79272   0.82330   0.85141   0.96153
 Alpha virt. eigenvalues --    0.97265   0.97971   0.98415   1.03522   1.03842
 Alpha virt. eigenvalues --    1.06813   1.07396   1.08397   1.11712   1.14380
 Alpha virt. eigenvalues --    1.15868   1.16844   1.19024   1.22044   1.22509
 Alpha virt. eigenvalues --    1.24254   1.27339   1.32295   1.34796   1.37782
 Alpha virt. eigenvalues --    1.47977   1.51452   1.56378   1.61230   1.69376
 Alpha virt. eigenvalues --    1.70082   1.79235   1.91290   1.94136   1.98827
 Alpha virt. eigenvalues --    2.02097   2.13419   2.20314   2.23079   2.35252
 Alpha virt. eigenvalues --    2.38014   2.40038   2.46227   2.47082   2.56347
 Alpha virt. eigenvalues --    2.61455   2.67042   2.72439   2.81263   2.87177
 Alpha virt. eigenvalues --    2.98929   3.13196   3.22810   4.08983   4.13854
 Alpha virt. eigenvalues --    4.31353   4.37291   4.53245   4.56474
  Beta  occ. eigenvalues --  -88.76694 -14.19898 -14.18300 -10.13666 -10.08145
  Beta  occ. eigenvalues --  -10.06814  -7.82656  -5.79059  -5.78752  -5.78330
  Beta  occ. eigenvalues --   -0.83032  -0.74835  -0.64851  -0.57915  -0.45354
  Beta  occ. eigenvalues --   -0.42518  -0.36796  -0.35344  -0.30612  -0.27236
  Beta  occ. eigenvalues --   -0.26131  -0.21835  -0.17257  -0.13509  -0.13431
  Beta  occ. eigenvalues --   -0.06790
  Beta virt. eigenvalues --    0.11157   0.12676   0.12784   0.12996   0.15398
  Beta virt. eigenvalues --    0.15750   0.17248   0.17622   0.17912   0.19313
  Beta virt. eigenvalues --    0.20459   0.20898   0.21313   0.22418   0.24615
  Beta virt. eigenvalues --    0.25027   0.25564   0.26294   0.28293   0.29557
  Beta virt. eigenvalues --    0.29834   0.31148   0.31780   0.32916   0.33596
  Beta virt. eigenvalues --    0.34444   0.36672   0.38964   0.40244   0.43528
  Beta virt. eigenvalues --    0.43890   0.44908   0.46080   0.47568   0.53324
  Beta virt. eigenvalues --    0.62129   0.63036   0.64239   0.66260   0.69080
  Beta virt. eigenvalues --    0.75357   0.76217   0.79456   0.82442   0.85230
  Beta virt. eigenvalues --    0.96281   0.97468   0.98123   0.98641   1.03656
  Beta virt. eigenvalues --    1.03948   1.06977   1.07576   1.08729   1.11925
  Beta virt. eigenvalues --    1.14680   1.16048   1.16850   1.19132   1.22185
  Beta virt. eigenvalues --    1.22798   1.24456   1.27458   1.32391   1.34901
  Beta virt. eigenvalues --    1.37926   1.48134   1.51555   1.56498   1.61398
  Beta virt. eigenvalues --    1.69475   1.70134   1.79497   1.91432   1.94423
  Beta virt. eigenvalues --    1.98985   2.02288   2.13570   2.20465   2.23286
  Beta virt. eigenvalues --    2.35469   2.38270   2.40223   2.46444   2.47238
  Beta virt. eigenvalues --    2.56548   2.61619   2.67251   2.72627   2.81379
  Beta virt. eigenvalues --    2.87358   2.99128   3.13298   3.22951   4.09093
  Beta virt. eigenvalues --    4.14152   4.31434   4.37468   4.53405   4.56616
          Condensed to atoms (all electrons):
              1          2          3          4          5          6
     1  C   23.242019   5.370358 -17.940650  -0.759100  -0.053885   0.074895
     2  C    5.370358   8.765012  -7.553670  -0.301950   0.378736   0.047832
     3  C  -17.940650  -7.553670  32.257729   1.934330   0.026214   0.203236
     4  S   -0.759100  -0.301950   1.934330  17.008913  -0.008408  -0.014582
     5  H   -0.053885   0.378736   0.026214  -0.008408   0.585280  -0.001791
     6  H    0.074895   0.047832   0.203236  -0.014582  -0.001791   0.506998
     7  N   -2.320704  -0.794407   4.253393   0.623491  -0.067255  -0.000093
     8  N   -1.242877   0.524345  -6.837721  -2.467602  -0.008705   0.003351
     9  H    0.286522   0.019073   0.131481   0.083301   0.000013   0.000001
    10  H    0.284000  -0.001831   0.151256   0.110346   0.000007  -0.000005
              7          8          9         10
     1  C   -2.320704  -1.242877   0.286522   0.284000
     2  C   -0.794407   0.524345   0.019073  -0.001831
     3  C    4.253393  -6.837721   0.131481   0.151256
     4  S    0.623491  -2.467602   0.083301   0.110346
     5  H   -0.067255  -0.008705   0.000013   0.000007
     6  H   -0.000093   0.003351   0.000001  -0.000005
     7  N    8.195188  -2.634058   0.067152   0.085997
     8  N   -2.634058  19.717410  -0.334167  -0.353895
     9  H    0.067152  -0.334167   0.404777   0.003079
    10  H    0.085997  -0.353895   0.003079   0.386576
 Mulliken atomic charges:
              1
     1  C   -0.940578
     2  C   -0.453498
     3  C   -0.625597
     4  S   -0.208738
     5  H    0.149794
     6  H    0.180160
     7  N   -0.408703
     8  N    0.633920
     9  H    0.338769
    10  H    0.334471
 Sum of Mulliken atomic charges =  -1.00000
 Mulliken charges with hydrogens summed into heavy atoms:
              1
     1  C   -0.940578
     2  C   -0.303704
     3  C   -0.445437
     4  S   -0.208738
     7  N   -0.408703
     8  N    1.307160
 Sum of Mulliken charges with hydrogens summed into heavy atoms =  -1.00000
          Atomic-Atomic Spin Densities.
              1          2          3          4          5          6
     1  C   17.457117   5.181518 -17.648501  -0.579463  -0.096182   0.065306
     2  C    5.181518   3.376909  -7.748681  -0.094100  -0.053658   0.050765
     3  C  -17.648501  -7.748681  26.270864   1.781583   0.139066  -0.111941
     4  S   -0.579463  -0.094100   1.781583   0.891760   0.003683   0.003242
     5  H   -0.096182  -0.053658   0.139066   0.003683   0.003621  -0.000316
     6  H    0.065306   0.050765  -0.111941   0.003242  -0.000316   0.000152
     7  N   -2.562938  -0.925121   4.186482   0.602774   0.011656  -0.009422
     8  N   -1.460011   0.442706  -6.787580  -2.313524  -0.008105   0.003358
     9  H    0.305853   0.019142   0.133213   0.065393   0.000024  -0.000002
    10  H    0.289205  -0.001079   0.146684   0.116629   0.000005  -0.000004
              7          8          9         10
     1  C   -2.562938  -1.460011   0.305853   0.289205
     2  C   -0.925121   0.442706   0.019142  -0.001079
     3  C    4.186482  -6.787580   0.133213   0.146684
     4  S    0.602774  -2.313524   0.065393   0.116629
     5  H    0.011656  -0.008105   0.000024   0.000005
     6  H   -0.009422   0.003358  -0.000002  -0.000004
     7  N    1.064392  -2.374849   0.070226   0.070985
     8  N   -2.374849  12.447581  -0.628505  -0.639804
     9  H    0.070226  -0.628505   0.067708   0.025907
    10  H    0.070985  -0.639804   0.025907   0.076655
 Mulliken atomic spin densities:
              1
     1  C    0.951905
     2  C    0.248401
     3  C    0.361190
     4  S    0.477977
     5  H   -0.000205
     6  H    0.001138
     7  N    0.134184
     8  N   -1.318732
     9  H    0.058960
    10  H    0.085183
 Sum of Mulliken atomic spin densities =   1.00000
 Electronic spatial extent (au):  <R**2>=            635.4840
 Charge=             -1.0000 electrons
 Dipole moment (field-independent basis, Debye):
    X=             -5.9458    Y=              0.7670    Z=             -0.8043  Tot=              6.0488
 Quadrupole moment (field-independent basis, Debye-Ang):
   XX=            -72.1187   YY=            -63.7131   ZZ=            -58.7490
   XY=              2.8281   XZ=             -0.8659   YZ=              1.1142
 Traceless Quadrupole moment (field-independent basis, Debye-Ang):
   XX=             -7.2584   YY=              1.1472   ZZ=              6.1113
   XY=              2.8281   XZ=             -0.8659   YZ=              1.1142
 Octapole moment (field-independent basis, Debye-Ang**2):
  XXX=            -64.5583  YYY=              9.8388  ZZZ=             -9.5070  XYY=            -28.7476
  XXY=              9.4431  XXZ=             -4.8331  XZZ=            -20.9243  YZZ=              3.5518
  YYZ=             -5.7603  XYZ=              1.4913
 Hexadecapole moment (field-independent basis, Debye-Ang**3):
 XXXX=           -948.0768 YYYY=           -476.3034 ZZZZ=           -148.4832 XXXY=             32.1683
 XXXZ=             -9.8423 YYYX=             18.7955 YYYZ=              9.0050 ZZZX=            -15.6173
 ZZZY=              7.4048 XXYY=           -228.8350 XXZZ=           -194.6142 YYZZ=           -106.0455
 XXYZ=              4.1870 YYXZ=             -7.7499 ZZXY=              7.8903
 N-N= 2.773446279349D+02 E-N=-3.046636761741D+03  KE= 9.313339832119D+02
                          Isotropic Fermi Contact Couplings
        Atom                 a.u.       MegaHertz       Gauss      10(-4) cm-1
     1  C(13)              0.00175       1.97063       0.70317       0.65733
     2  C(13)              0.00048       0.53786       0.19192       0.17941
     3  C(13)              0.05093      57.25395      20.42963      19.09786
     4  S(33)              0.09493      32.60483      11.63421      10.87580
     5  H(1)               0.00028       1.23630       0.44114       0.41238
     6  H(1)              -0.00125      -5.58967      -1.99453      -1.86451
     7  N(14)              0.03261      10.53518       3.75921       3.51416
     8  N(14)              0.22430      72.47301      25.86017      24.17440
     9  H(1)               0.00067       3.01087       1.07435       1.00432
    10  H(1)               0.00068       3.04897       1.08795       1.01703
 --------------------------------------------------------
       Center         ----  Spin Dipole Couplings  ----
                      3XX-RR        3YY-RR        3ZZ-RR
 --------------------------------------------------------
     1   Atom       -0.016368     -0.019319      0.035687
     2   Atom        0.001918     -0.001923      0.000004
     3   Atom       -0.027164      0.014824      0.012341
     4   Atom        0.040977     -0.041583      0.000606
     5   Atom        0.001208      0.000857     -0.002066
     6   Atom        0.009783     -0.005212     -0.004571
     7   Atom       -0.004036      0.026546     -0.022510
     8   Atom        0.040651     -0.021392     -0.019259
     9   Atom       -0.006622      0.012642     -0.006020
    10   Atom       -0.009596      0.012897     -0.003301
 --------------------------------------------------------
                        XY            XZ            YZ
 --------------------------------------------------------
     1   Atom        0.012817     -0.029425     -0.030366
     2   Atom        0.007228      0.015647      0.011774
     3   Atom       -0.017539     -0.016275      0.049757
     4   Atom        0.027679      0.064970      0.010613
     5   Atom       -0.001706      0.001625     -0.000212
     6   Atom        0.000120     -0.005150      0.000333
     7   Atom        0.006380      0.001548     -0.020674
     8   Atom       -0.024580     -0.010890      0.001693
     9   Atom        0.004915      0.002014      0.003459
    10   Atom       -0.004421      0.004345     -0.013325
 --------------------------------------------------------


 ---------------------------------------------------------------------------------
              Anisotropic Spin Dipole Couplings in Principal Axis System
 ---------------------------------------------------------------------------------

       Atom             a.u.   MegaHertz   Gauss  10(-4) cm-1        Axes

              Baa    -0.0328    -4.401    -1.570    -1.468  0.0549  0.9038  0.4244
     1 C(13)  Bbb    -0.0295    -3.953    -1.411    -1.319  0.9242 -0.2069  0.3210
              Bcc     0.0623     8.354     2.981     2.787 -0.3779 -0.3746  0.8467
 
              Baa    -0.0162    -2.173    -0.776    -0.725 -0.5162 -0.3741  0.7704
     2 C(13)  Bbb    -0.0075    -1.004    -0.358    -0.335 -0.5978  0.8016 -0.0113
              Bcc     0.0237     3.177     1.134     1.060  0.6134  0.4664  0.6374
 
              Baa    -0.0363    -4.870    -1.738    -1.625  0.1729  0.7168 -0.6755
     3 C(13)  Bbb    -0.0330    -4.427    -1.580    -1.477  0.9551  0.0456  0.2929
              Bcc     0.0693     9.298     3.318     3.101 -0.2407  0.6958  0.6767
 
              Baa    -0.0551    -2.260    -0.806    -0.754 -0.5270  0.7006  0.4811
     4 S(33)  Bbb    -0.0397    -1.628    -0.581    -0.543  0.3012  0.6833 -0.6651
              Bcc     0.0948     3.888     1.387     1.297  0.7947  0.2057  0.5711
 
              Baa    -0.0028    -1.495    -0.534    -0.499 -0.4242 -0.1459  0.8937
     5 H(1)   Bbb    -0.0003    -0.167    -0.060    -0.056  0.4956  0.7886  0.3640
              Bcc     0.0031     1.662     0.593     0.554  0.7579 -0.5974  0.2622
 
              Baa    -0.0063    -3.382    -1.207    -1.128  0.2923 -0.2999  0.9081
     6 H(1)   Bbb    -0.0051    -2.722    -0.971    -0.908  0.0912  0.9540  0.2857
              Bcc     0.0114     6.104     2.178     2.036  0.9520  0.0007 -0.3062
 
              Baa    -0.0306    -1.179    -0.421    -0.393 -0.1384  0.3507  0.9262
     7 N(14)  Bbb    -0.0043    -0.166    -0.059    -0.055  0.9805 -0.0835  0.1781
              Bcc     0.0349     1.345     0.480     0.449  0.1398  0.9328 -0.3323
 
              Baa    -0.0304    -1.171    -0.418    -0.391  0.3479  0.9156  0.2016
     8 N(14)  Bbb    -0.0205    -0.792    -0.283    -0.264  0.0751 -0.2416  0.9675
              Bcc     0.0509     1.963     0.700     0.655  0.9345 -0.3214 -0.1528
 
              Baa    -0.0085    -4.546    -1.622    -1.516  0.8427 -0.1096 -0.5271
     9 H(1)   Bbb    -0.0060    -3.212    -1.146    -1.071  0.4824 -0.2808  0.8297
              Bcc     0.0145     7.758     2.768     2.588  0.2389  0.9535  0.1838
 
              Baa    -0.0124    -6.596    -2.354    -2.200  0.6899 -0.2396 -0.6831
    10 H(1)   Bbb    -0.0092    -4.899    -1.748    -1.634  0.6988  0.4670  0.5419
              Bcc     0.0215    11.495     4.102     3.834 -0.1892  0.8512 -0.4896
 

 ---------------------------------------------------------------------------------

 ******************************Gaussian NBO Version 3.1******************************
             N A T U R A L   A T O M I C   O R B I T A L   A N D
          N A T U R A L   B O N D   O R B I T A L   A N A L Y S I S
 ******************************Gaussian NBO Version 3.1******************************
       /RESON  / : Allow strongly delocalized NBO set

 Analyzing the SCF density

 Job title: ATZ-1                                                           

 Storage needed:     48294 in NPA,     64005 in NBO ( 536870332 available)


 NATURAL POPULATIONS:  Natural atomic orbital occupancies 
                                                          
   NAO  Atom  No  lang   Type(AO)    Occupancy
 --------------------------------------------
     1    C    1  S      Cor( 1S)     1.99928
     2    C    1  S      Val( 2S)     0.88683
     3    C    1  S      Ryd( 3S)     0.08159
     4    C    1  S      Ryd( 4S)     0.00514
     5    C    1  S      Ryd( 5S)     0.00022
     6    C    1  px     Val( 2p)     0.91324
     7    C    1  px     Ryd( 3p)     0.05752
     8    C    1  px     Ryd( 4p)     0.00787
     9    C    1  py     Val( 2p)     0.95040
    10    C    1  py     Ryd( 4p)     0.00398
    11    C    1  py     Ryd( 3p)     0.01134
    12    C    1  pz     Val( 2p)     0.97756
    13    C    1  pz     Ryd( 3p)     0.00561
    14    C    1  pz     Ryd( 4p)     0.00191
    15    C    1  dxy    Ryd( 3d)     0.00198
    16    C    1  dxz    Ryd( 3d)     0.00199
    17    C    1  dyz    Ryd( 3d)     0.00120
    18    C    1  dx2y2  Ryd( 3d)     0.00159
    19    C    1  dz2    Ryd( 3d)     0.00062

    20    C    2  S      Cor( 1S)     1.99904
    21    C    2  S      Val( 2S)     0.93887
    22    C    2  S      Ryd( 3S)     0.00218
    23    C    2  S      Ryd( 4S)     0.00117
    24    C    2  S      Ryd( 5S)     0.00006
    25    C    2  px     Val( 2p)     0.94425
    26    C    2  px     Ryd( 3p)     0.00782
    27    C    2  px     Ryd( 4p)     0.00174
    28    C    2  py     Val( 2p)     1.14222
    29    C    2  py     Ryd( 3p)     0.00706
    30    C    2  py     Ryd( 4p)     0.00308
    31    C    2  pz     Val( 2p)     1.03433
    32    C    2  pz     Ryd( 3p)     0.00480
    33    C    2  pz     Ryd( 4p)     0.00161
    34    C    2  dxy    Ryd( 3d)     0.00155
    35    C    2  dxz    Ryd( 3d)     0.00106
    36    C    2  dyz    Ryd( 3d)     0.00068
    37    C    2  dx2y2  Ryd( 3d)     0.00093
    38    C    2  dz2    Ryd( 3d)     0.00043

    39    C    3  S      Cor( 1S)     1.99903
    40    C    3  S      Val( 2S)     1.07320
    41    C    3  S      Ryd( 3S)     0.01317
    42    C    3  S      Ryd( 4S)     0.00085
    43    C    3  S      Ryd( 5S)     0.00002
    44    C    3  px     Val( 2p)     1.16963
    45    C    3  px     Ryd( 3p)     0.02265
    46    C    3  px     Ryd( 4p)     0.00324
    47    C    3  py     Val( 2p)     1.08318
    48    C    3  py     Ryd( 4p)     0.00392
    49    C    3  py     Ryd( 3p)     0.00401
    50    C    3  pz     Val( 2p)     1.20800
    51    C    3  pz     Ryd( 3p)     0.00742
    52    C    3  pz     Ryd( 4p)     0.00082
    53    C    3  dxy    Ryd( 3d)     0.00127
    54    C    3  dxz    Ryd( 3d)     0.00061
    55    C    3  dyz    Ryd( 3d)     0.00077
    56    C    3  dx2y2  Ryd( 3d)     0.00066
    57    C    3  dz2    Ryd( 3d)     0.00082

    58    S    4  S      Cor( 1S)     2.00000
    59    S    4  S      Cor( 2S)     1.99927
    60    S    4  S      Val( 3S)     1.66145
    61    S    4  S      Ryd( 4S)     0.02554
    62    S    4  S      Ryd( 5S)     0.00216
    63    S    4  S      Ryd( 6S)     0.00004
    64    S    4  px     Cor( 2p)     1.99985
    65    S    4  px     Val( 3p)     0.97774
    66    S    4  px     Ryd( 4p)     0.09229
    67    S    4  px     Ryd( 5p)     0.00454
    68    S    4  py     Cor( 2p)     1.99984
    69    S    4  py     Val( 3p)     1.31925
    70    S    4  py     Ryd( 4p)     0.01079
    71    S    4  py     Ryd( 5p)     0.00238
    72    S    4  pz     Cor( 2p)     1.99997
    73    S    4  pz     Val( 3p)     1.69322
    74    S    4  pz     Ryd( 4p)     0.01015
    75    S    4  pz     Ryd( 5p)     0.00376
    76    S    4  dxy    Ryd( 3d)     0.01060
    77    S    4  dxz    Ryd( 3d)     0.00403
    78    S    4  dyz    Ryd( 3d)     0.00302
    79    S    4  dx2y2  Ryd( 3d)     0.00256
    80    S    4  dz2    Ryd( 3d)     0.00277

    81    H    5  S      Val( 1S)     0.78011
    82    H    5  S      Ryd( 2S)     0.00071

    83    H    6  S      Val( 1S)     0.76237
    84    H    6  S      Ryd( 2S)     0.00302

    85    N    7  S      Cor( 1S)     1.99932
    86    N    7  S      Val( 2S)     1.37890
    87    N    7  S      Ryd( 3S)     0.00386
    88    N    7  S      Ryd( 4S)     0.00039
    89    N    7  S      Ryd( 5S)     0.00008
    90    N    7  px     Val( 2p)     1.28467
    91    N    7  px     Ryd( 3p)     0.00514
    92    N    7  px     Ryd( 4p)     0.00399
    93    N    7  py     Val( 2p)     1.56255
    94    N    7  py     Ryd( 3p)     0.00615
    95    N    7  py     Ryd( 4p)     0.00551
    96    N    7  pz     Val( 2p)     1.31026
    97    N    7  pz     Ryd( 3p)     0.00211
    98    N    7  pz     Ryd( 4p)     0.00003
    99    N    7  dxy    Ryd( 3d)     0.00306
   100    N    7  dxz    Ryd( 3d)     0.00062
   101    N    7  dyz    Ryd( 3d)     0.00310
   102    N    7  dx2y2  Ryd( 3d)     0.00300
   103    N    7  dz2    Ryd( 3d)     0.00256

   104    N    8  S      Cor( 1S)     1.99941
   105    N    8  S      Val( 2S)     1.40212
   106    N    8  S      Ryd( 3S)     0.19744
   107    N    8  S      Ryd( 4S)     0.00095
   108    N    8  S      Ryd( 5S)     0.00012
   109    N    8  px     Val( 2p)     1.29660
   110    N    8  px     Ryd( 3p)     0.03812
   111    N    8  px     Ryd( 4p)     0.00398
   112    N    8  py     Val( 2p)     1.43405
   113    N    8  py     Ryd( 3p)     0.00457
   114    N    8  py     Ryd( 4p)     0.00185
   115    N    8  pz     Val( 2p)     1.72027
   116    N    8  pz     Ryd( 3p)     0.01516
   117    N    8  pz     Ryd( 4p)     0.00400
   118    N    8  dxy    Ryd( 3d)     0.00035
   119    N    8  dxz    Ryd( 3d)     0.00121
   120    N    8  dyz    Ryd( 3d)     0.00178
   121    N    8  dx2y2  Ryd( 3d)     0.00210
   122    N    8  dz2    Ryd( 3d)     0.00165

   123    H    9  S      Val( 1S)     0.62854
   124    H    9  S      Ryd( 2S)     0.00767

   125    H   10  S      Val( 1S)     0.66236
   126    H   10  S      Ryd( 2S)     0.03297


 Summary of Natural Population Analysis:                  
                                                          
                                       Natural Population 
                Natural  -----------------------------------------------
    Atom  No    Charge         Core      Valence    Rydberg      Total
 -----------------------------------------------------------------------
      C    1    0.09013      1.99928     3.72803    0.18256     5.90987
      C    2   -0.09289      1.99904     4.05968    0.03417     6.09289
      C    3   -0.59326      1.99903     4.53401    0.06022     6.59326
      S    4    0.17480      9.99893     5.65165    0.17462    15.82520
      H    5    0.21917      0.00000     0.78011    0.00071     0.78083
      H    6    0.23461      0.00000     0.76237    0.00302     0.76539
      N    7   -0.57530      1.99932     5.53638    0.03960     7.57530
      N    8   -1.12572      1.99941     5.85304    0.27327     8.12572
      H    9    0.36379      0.00000     0.62854    0.00767     0.63621
      H   10    0.30467      0.00000     0.66236    0.03297     0.69533
 =======================================================================
   * Total *   -1.00000     19.99501    32.19618    0.80881    53.00000

                                 Natural Population      
 --------------------------------------------------------
   Core                      19.99501 ( 99.9751% of  20)
   Valence                   32.19618 ( 97.5642% of  33)
   Natural Minimal Basis     52.19119 ( 98.4739% of  53)
   Natural Rydberg Basis      0.80881 (  1.5261% of  53)
 --------------------------------------------------------

    Atom  No          Natural Electron Configuration
 ----------------------------------------------------------------------------
      C    1      [core]2S( 0.89)2p( 2.84)3S( 0.08)3p( 0.07)4S( 0.01)3d( 0.01)4p( 0.01)
      C    2      [core]2S( 0.94)2p( 3.12)3p( 0.02)4p( 0.01)
      C    3      [core]2S( 1.07)2p( 3.46)3S( 0.01)3p( 0.03)4p( 0.01)
      S    4      [core]3S( 1.66)3p( 3.99)4S( 0.03)3d( 0.02)4p( 0.11)5p( 0.01)
      H    5            1S( 0.78)
      H    6            1S( 0.76)
      N    7      [core]2S( 1.38)2p( 4.16)3p( 0.01)3d( 0.01)4p( 0.01)
      N    8      [core]2S( 1.40)2p( 4.45)3S( 0.20)3p( 0.06)3d( 0.01)4p( 0.01)
      H    9            1S( 0.63)2S( 0.01)
      H   10            1S( 0.66)2S( 0.03)


 ***************************************************
 *******         Alpha spin orbitals         *******
 ***************************************************


 NATURAL POPULATIONS:  Natural atomic orbital occupancies 
                                                          
   NAO  Atom  No  lang   Type(AO)    Occupancy      Energy
 ----------------------------------------------------------
     1    C    1  S      Cor( 1S)     0.99965     -10.01732
     2    C    1  S      Val( 2S)     0.44547      -0.08325
     3    C    1  S      Ryd( 4S)     0.07961       1.27196
     4    C    1  S      Ryd( 5S)     0.00254       1.87615
     5    C    1  S      Ryd( 3S)     0.00011       0.74862
     6    C    1  px     Val( 2p)     0.46137       0.06739
     7    C    1  px     Ryd( 4p)     0.05636       1.22471
     8    C    1  px     Ryd( 3p)     0.00392       1.00402
     9    C    1  py     Val( 2p)     0.47628       0.04270
    10    C    1  py     Ryd( 3p)     0.00206       0.53282
    11    C    1  py     Ryd( 4p)     0.00572       0.92934
    12    C    1  pz     Val( 2p)     0.49989      -0.00144
    13    C    1  pz     Ryd( 3p)     0.00481       0.26000
    14    C    1  pz     Ryd( 4p)     0.00093       0.79331
    15    C    1  dxy    Ryd( 3d)     0.00102       2.69388
    16    C    1  dxz    Ryd( 3d)     0.00099       2.22262
    17    C    1  dyz    Ryd( 3d)     0.00060       2.17013
    18    C    1  dx2y2  Ryd( 3d)     0.00080       2.74078
    19    C    1  dz2    Ryd( 3d)     0.00035       2.47276

    20    C    2  S      Cor( 1S)     0.99952      -9.94215
    21    C    2  S      Val( 2S)     0.46987      -0.04900
    22    C    2  S      Ryd( 3S)     0.00192       0.78037
    23    C    2  S      Ryd( 4S)     0.00072       0.93089
    24    C    2  S      Ryd( 5S)     0.00003       4.30389
    25    C    2  px     Val( 2p)     0.47505       0.10538
    26    C    2  px     Ryd( 4p)     0.00391       0.79771
    27    C    2  px     Ryd( 3p)     0.00140       0.54854
    28    C    2  py     Val( 2p)     0.57163       0.07294
    29    C    2  py     Ryd( 4p)     0.00361       0.87240
    30    C    2  py     Ryd( 3p)     0.00176       0.41189
    31    C    2  pz     Val( 2p)     0.52038       0.01946
    32    C    2  pz     Ryd( 4p)     0.00339       0.57197
    33    C    2  pz     Ryd( 3p)     0.00138       0.46574
    34    C    2  dxy    Ryd( 3d)     0.00078       2.60967
    35    C    2  dxz    Ryd( 3d)     0.00053       2.18159
    36    C    2  dyz    Ryd( 3d)     0.00034       2.01120
    37    C    2  dx2y2  Ryd( 3d)     0.00047       2.65492
    38    C    2  dz2    Ryd( 3d)     0.00022       2.50750

    39    C    3  S      Cor( 1S)     0.99952      -9.94391
    40    C    3  S      Val( 2S)     0.54760      -0.14104
    41    C    3  S      Ryd( 3S)     0.01286       0.46780
    42    C    3  S      Ryd( 4S)     0.00042       1.24332
    43    C    3  S      Ryd( 5S)     0.00001       4.31951
    44    C    3  px     Val( 2p)     0.58952       0.02795
    45    C    3  px     Ryd( 3p)     0.02169       0.34481
    46    C    3  px     Ryd( 4p)     0.00217       1.06615
    47    C    3  py     Val( 2p)     0.55059       0.02294
    48    C    3  py     Ryd( 3p)     0.00204       0.33043
    49    C    3  py     Ryd( 4p)     0.00204       0.83058
    50    C    3  pz     Val( 2p)     0.61600      -0.01109
    51    C    3  pz     Ryd( 3p)     0.00518       0.22067
    52    C    3  pz     Ryd( 4p)     0.00056       0.83460
    53    C    3  dxy    Ryd( 3d)     0.00064       2.39858
    54    C    3  dxz    Ryd( 3d)     0.00030       1.86095
    55    C    3  dyz    Ryd( 3d)     0.00038       2.01783
    56    C    3  dx2y2  Ryd( 3d)     0.00033       2.40466
    57    C    3  dz2    Ryd( 3d)     0.00040       2.29583

    58    S    4  S      Cor( 1S)     1.00000     -87.61803
    59    S    4  S      Cor( 2S)     0.99963      -8.70507
    60    S    4  S      Val( 3S)     0.83201      -0.59358
    61    S    4  S      Ryd( 5S)     0.02503       1.72040
    62    S    4  S      Ryd( 4S)     0.00109       1.01862
    63    S    4  S      Ryd( 6S)     0.00002       4.02255
    64    S    4  px     Cor( 2p)     0.99993      -5.78326
    65    S    4  px     Val( 3p)     0.51636      -0.03499
    66    S    4  px     Ryd( 4p)     0.09007       0.26349
    67    S    4  px     Ryd( 5p)     0.00229       0.61584
    68    S    4  py     Cor( 2p)     0.99992      -5.78051
    69    S    4  py     Val( 3p)     0.65908      -0.05892
    70    S    4  py     Ryd( 4p)     0.00969       0.36179
    71    S    4  py     Ryd( 5p)     0.00172       0.57502
    72    S    4  pz     Cor( 2p)     0.99998      -5.77862
    73    S    4  pz     Val( 3p)     0.85039      -0.10594
    74    S    4  pz     Ryd( 4p)     0.00924       0.19358
    75    S    4  pz     Ryd( 5p)     0.00193       0.63643
    76    S    4  dxy    Ryd( 3d)     0.00597       1.33608
    77    S    4  dxz    Ryd( 3d)     0.00204       0.97924
    78    S    4  dyz    Ryd( 3d)     0.00165       1.00155
    79    S    4  dx2y2  Ryd( 3d)     0.00145       1.26906
    80    S    4  dz2    Ryd( 3d)     0.00139       1.22395

    81    H    5  S      Val( 1S)     0.39016       0.20590
    82    H    5  S      Ryd( 2S)     0.00035       0.83610

    83    H    6  S      Val( 1S)     0.38195       0.21484
    84    H    6  S      Ryd( 2S)     0.00273       0.81419

    85    N    7  S      Cor( 1S)     0.99966     -13.97956
    86    N    7  S      Val( 2S)     0.69059      -0.37833
    87    N    7  S      Ryd( 3S)     0.00208       1.73673
    88    N    7  S      Ryd( 4S)     0.00020       2.23163
    89    N    7  S      Ryd( 5S)     0.00005       2.35649
    90    N    7  px     Val( 2p)     0.64185      -0.02142
    91    N    7  px     Ryd( 3p)     0.00331       0.79480
    92    N    7  px     Ryd( 4p)     0.00320       1.06685
    93    N    7  py     Val( 2p)     0.78347      -0.07108
    94    N    7  py     Ryd( 3p)     0.00302       0.68400
    95    N    7  py     Ryd( 4p)     0.00498       1.14940
    96    N    7  pz     Val( 2p)     0.65309      -0.03350
    97    N    7  pz     Ryd( 3p)     0.00109       0.47993
    98    N    7  pz     Ryd( 4p)     0.00002       1.01428
    99    N    7  dxy    Ryd( 3d)     0.00154       2.32039
   100    N    7  dxz    Ryd( 3d)     0.00032       1.91323
   101    N    7  dyz    Ryd( 3d)     0.00154       1.93040
   102    N    7  dx2y2  Ryd( 3d)     0.00149       2.35984
   103    N    7  dz2    Ryd( 3d)     0.00127       2.25540

   104    N    8  S      Cor( 1S)     0.99971     -14.03924
   105    N    8  S      Val( 2S)     0.73507      -0.42493
   106    N    8  S      Ryd( 3S)     0.19137       1.17158
   107    N    8  S      Ryd( 5S)     0.00046       1.65698
   108    N    8  S      Ryd( 4S)     0.00006       1.61449
   109    N    8  px     Val( 2p)     0.65228      -0.06706
   110    N    8  px     Ryd( 3p)     0.03688       0.67743
   111    N    8  px     Ryd( 4p)     0.00300       1.05179
   112    N    8  py     Val( 2p)     0.71598      -0.06295
   113    N    8  py     Ryd( 3p)     0.00370       0.45740
   114    N    8  py     Ryd( 4p)     0.00097       1.17446
   115    N    8  pz     Val( 2p)     0.85960      -0.09738
   116    N    8  pz     Ryd( 3p)     0.01262       0.38019
   117    N    8  pz     Ryd( 4p)     0.00221       1.02044
   118    N    8  dxy    Ryd( 3d)     0.00018       2.25430
   119    N    8  dxz    Ryd( 3d)     0.00059       1.93508
   120    N    8  dyz    Ryd( 3d)     0.00088       2.12109
   121    N    8  dx2y2  Ryd( 3d)     0.00104       2.33947
   122    N    8  dz2    Ryd( 3d)     0.00082       2.12585

   123    H    9  S      Val( 1S)     0.33764       0.26302
   124    H    9  S      Ryd( 2S)     0.00604       0.97472

   125    H   10  S      Val( 1S)     0.37865       0.22971
   126    H   10  S      Ryd( 2S)     0.02977       0.97831

 WARNING:  Population inversion found on atom  C    1
           Population inversion found on atom  C    2
           Population inversion found on atom  C    3
           Population inversion found on atom  S    4
           Population inversion found on atom  N    7
           Population inversion found on atom  N    8


 Summary of Natural Population Analysis:                  
                                                          
                                       Natural Population 
                Natural  -----------------------------------------------
    Atom  No    Charge         Core      Valence    Rydberg      Total
 -----------------------------------------------------------------------
      C    1   -0.04249      0.99965     1.88301    0.15982     3.04249
      C    2   -0.05691      0.99952     2.03694    0.02045     3.05691
      C    3   -0.35224      0.99952     2.30371    0.04901     3.35224
      S    4   -0.01086      4.99946     2.85784    0.15356     8.01086
      H    5    0.10949      0.00000     0.39016    0.00035     0.39051
      H    6    0.11532      0.00000     0.38195    0.00273     0.38468
      N    7   -0.29277      0.99966     2.76899    0.02411     3.79277
      N    8   -0.71744      0.99971     2.96293    0.25481     4.21744
      H    9    0.15632      0.00000     0.33764    0.00604     0.34368
      H   10    0.09158      0.00000     0.37865    0.02977     0.40842
 =======================================================================
   * Total *   -1.00000      9.99752    16.30182    0.70065    27.00000

                                 Natural Population      
 --------------------------------------------------------
   Core                       9.99752 ( 99.9752% of  10)
   Valence                   16.30182 ( 95.8931% of  17)
   Natural Minimal Basis     26.29935 ( 97.4050% of  27)
   Natural Rydberg Basis      0.70065 (  2.5950% of  27)
 --------------------------------------------------------

    Atom  No          Natural Electron Configuration
 ----------------------------------------------------------------------------
      C    1      [core]2S( 0.45)2p( 1.44)3p( 0.01)4S( 0.08)4p( 0.06)
      C    2      [core]2S( 0.47)2p( 1.57)4p( 0.01)
      C    3      [core]2S( 0.55)2p( 1.76)3S( 0.01)3p( 0.03)
      S    4      [core]3S( 0.83)3p( 2.03)3d( 0.01)4p( 0.11)5S( 0.03)5p( 0.01)
      H    5            1S( 0.39)
      H    6            1S( 0.38)
      N    7      [core]2S( 0.69)2p( 2.08)3p( 0.01)3d( 0.01)4p( 0.01)
      N    8      [core]2S( 0.74)2p( 2.23)3S( 0.19)3p( 0.05)4p( 0.01)
      H    9            1S( 0.34)2S( 0.01)
      H   10            1S( 0.38)2S( 0.03)


 NATURAL BOND ORBITAL ANALYSIS, alpha spin orbitals:

                       Occupancies       Lewis Structure    Low   High
           Occ.    -------------------  -----------------   occ   occ
  Cycle   Thresh.   Lewis   Non-Lewis     CR  BD  3C  LP    (L)   (NL)   Dev
 =============================================================================
   1(1)    0.90    25.72212   1.27788     10  13   0   4     2      5    0.08
   2(2)    0.90    25.87053   1.12947     10  14   0   3     2      4    0.04
   3(3)    0.90    25.67349   1.32651     10  13   0   4     2      5    0.08
   4(4)    0.90    25.87053   1.12947     10  14   0   3     2      4    0.04
   5(1)    0.80    25.94563   1.05437     10  13   0   4     1      4    0.04
   6(2)    0.80    25.76660   1.23340     10  12   0   4     1      5    0.08
   7(3)    0.80    25.94563   1.05437     10  13   0   4     1      4    0.04
   8(1)    0.70    25.39168   1.60832     10  10   0   7     1      6    0.19
   9(2)    0.70    25.39168   1.60832     10  10   0   7     1      6    0.19
  10(1)    0.60    22.99683   4.00317     10   8   0   9     1     11    0.23

    The hybrids on atom  2 are linearly dependent.  An eigenvalue (  0.000092)
    of the hybrid overlap matrix is too small (<0.00010).

    PRJTHR will be raised from  0.200 to 0.250 and the NBO search repeated.


    The hybrids on atom  2 are linearly dependent.  An eigenvalue (  0.000092)
    of the hybrid overlap matrix is too small (<0.00010).

    PRJTHR will be raised from  0.250 to 0.300 and the NBO search repeated.


    The hybrids on atom  2 are linearly dependent.  An eigenvalue (  0.000092)
    of the hybrid overlap matrix is too small (<0.00010).

    PRJTHR will be raised from  0.300 to 0.350 and the NBO search repeated.

  11(2)    0.60    23.11847   3.88153     10   6   0  11     0     11    0.38
  12(3)    0.60    23.59945   3.40055     10   7   0  10     0      9    0.30
  13(4)    0.60    23.58183   3.41817     10   7   0  10     0      9    0.38
  14(5)    0.60    23.59945   3.40055     10   7   0  10     0      9    0.30
  15(6)    0.60    23.58183   3.41817     10   7   0  10     0      9    0.38
  16(7)    0.60    23.59945   3.40055     10   7   0  10     0      9    0.30
  17(8)    0.60    23.58183   3.41817     10   7   0  10     0      9    0.38
  18(9)    0.60    23.59945   3.40055     10   7   0  10     0      9    0.30
  19(1)    0.50    21.73477   5.26523     10   1   0  16     0     13    0.41
  20(2)    0.50    21.73477   5.26523     10   1   0  16     0     13    0.41
  21(1)    0.80    25.94563   1.05437     10  13   0   4     1      4    0.04
 -----------------------------------------------------------------------------

 Structure accepted: RESONANCE keyword permits strongly delocalized structure

 --------------------------------------------------------
   Core                      9.99752 ( 99.975% of  10)
   Valence Lewis            15.94811 ( 93.812% of  17)
  ==================       ============================
   Total Lewis              25.94563 ( 96.095% of  27)
  -----------------------------------------------------
   Valence non-Lewis         0.76946 (  2.850% of  27)
   Rydberg non-Lewis         0.28491 (  1.055% of  27)
  ==================       ============================
   Total non-Lewis           1.05437 (  3.905% of  27)
 --------------------------------------------------------


       (Occupancy)   Bond orbital/ Coefficients/ Hybrids
 ---------------------------------------------------------------------------------
     1. (0.97552) BD ( 1) C   1 - S   4  
                ( 54.11%)   0.7356* C   1 s( 29.11%)p 2.43( 70.76%)d 0.00(  0.12%)
                                            0.0000 -0.5380  0.0213 -0.0348  0.0050
                                            0.4655 -0.0136 -0.0452  0.6980 -0.0353
                                           -0.0103  0.0134  0.0016 -0.0009 -0.0293
                                           -0.0014 -0.0005  0.0108  0.0163
                ( 45.89%)   0.6774* S   4 s( 17.62%)p 4.61( 81.30%)d 0.06(  1.08%)
                                            0.0000 -0.0003 -0.4137  0.0678  0.0216
                                           -0.0016 -0.0001 -0.5655  0.1791  0.0360
                                           -0.0001 -0.6747 -0.0259  0.0335 -0.0001
                                            0.0215  0.0481  0.0075 -0.0921  0.0008
                                           -0.0126  0.0357  0.0303
     2. (0.99234) BD ( 1) C   1 - N   7  
                ( 41.35%)   0.6431* C   1 s( 36.30%)p 1.75( 63.64%)d 0.00(  0.06%)
                                            0.0001  0.6016  0.0282 -0.0153  0.0059
                                           -0.3648  0.0054  0.0137  0.7067 -0.0025
                                            0.0593  0.0128 -0.0023 -0.0002 -0.0150
                                           -0.0003 -0.0003 -0.0149 -0.0114
                ( 58.65%)   0.7658* N   7 s( 36.48%)p 1.73( 63.28%)d 0.01(  0.24%)
                                            0.0000  0.6036 -0.0224 -0.0041 -0.0020
                                            0.4433 -0.0203  0.0101 -0.6599  0.0028
                                            0.0047  0.0133 -0.0001  0.0002 -0.0256
                                           -0.0004 -0.0002 -0.0297 -0.0297
     3. (0.93224) BD ( 2) C   1 - N   7  
                ( 39.24%)   0.6264* C   1 s(  0.04%)p99.99( 99.85%)d 2.46(  0.11%)
                                            0.0003  0.0093 -0.0183  0.0039  0.0018
                                            0.0107 -0.0174 -0.0046 -0.0193 -0.0026
                                           -0.0009  0.9987  0.0071 -0.0133  0.0008
                                           -0.0236  0.0228 -0.0009 -0.0003
                ( 60.76%)   0.7795* N   7 s(  0.00%)p 1.00( 99.74%)d 0.00(  0.26%)
                                           -0.0001 -0.0041  0.0029  0.0007  0.0007
                                            0.0024  0.0045  0.0022  0.0177 -0.0005
                                           -0.0042  0.9984 -0.0149  0.0011  0.0000
                                           -0.0119 -0.0498  0.0005  0.0007
     4. (0.99316) BD ( 1) C   1 - N   8  
                ( 41.47%)   0.6440* C   1 s( 34.34%)p 1.91( 65.59%)d 0.00(  0.06%)
                                            0.0002 -0.5851 -0.0153  0.0294  0.0012
                                           -0.8041 -0.0078 -0.0426  0.0846  0.0061
                                            0.0008  0.0152 -0.0012  0.0079  0.0030
                                            0.0029  0.0001 -0.0226  0.0107
                ( 58.53%)   0.7650* N   8 s( 32.11%)p 2.11( 67.71%)d 0.01(  0.18%)
                                           -0.0001 -0.5537 -0.1199  0.0096  0.0038
                                            0.8176  0.0582 -0.0172 -0.0589 -0.0105
                                           -0.0051 -0.0329  0.0152 -0.0053  0.0071
                                            0.0120 -0.0005 -0.0318  0.0252
     5. (0.99421) BD ( 1) C   2 - C   3  
                ( 49.34%)   0.7024* C   2 s( 37.96%)p 1.63( 62.00%)d 0.00(  0.04%)
                                            0.0000  0.6160  0.0066 -0.0066  0.0000
                                           -0.2794  0.0352 -0.0090 -0.7351  0.0162
                                            0.0039  0.0042 -0.0011 -0.0008  0.0090
                                            0.0000 -0.0005 -0.0162 -0.0091
                ( 50.66%)   0.7118* C   3 s( 38.61%)p 1.59( 61.35%)d 0.00(  0.04%)
                                            0.0001  0.6210 -0.0167 -0.0118  0.0016
                                            0.2108  0.0077 -0.0186  0.7527 -0.0266
                                            0.0373  0.0028  0.0006  0.0000  0.0123
                                           -0.0003  0.0003 -0.0089 -0.0131
     6. (0.96916) BD ( 2) C   2 - C   3  
                ( 43.83%)   0.6621* C   2 s(  0.01%)p99.99( 99.91%)d 5.35(  0.08%)
                                            0.0000 -0.0111  0.0042  0.0005 -0.0001
                                           -0.0061  0.0007 -0.0018 -0.0012  0.0005
                                           -0.0021  0.9991  0.0290  0.0094 -0.0003
                                           -0.0077 -0.0263  0.0002  0.0005
                ( 56.17%)   0.7494* C   3 s(  0.05%)p99.99( 99.90%)d 1.07(  0.05%)
                                            0.0000 -0.0209 -0.0065 -0.0001 -0.0001
                                           -0.0034 -0.0089 -0.0020  0.0144 -0.0010
                                           -0.0004  0.9987  0.0354 -0.0089  0.0002
                                            0.0155  0.0165  0.0000  0.0001
     7. (0.98956) BD ( 1) C   2 - H   5  
                ( 61.22%)   0.7824* C   2 s( 32.46%)p 2.08( 67.48%)d 0.00(  0.06%)
                                           -0.0004  0.5695 -0.0097  0.0124 -0.0007
                                           -0.4867 -0.0126  0.0148  0.6613  0.0032
                                           -0.0150  0.0042  0.0011  0.0007 -0.0199
                                            0.0001  0.0005 -0.0069 -0.0112
                ( 38.78%)   0.6227* H   5 s(100.00%)
                                            1.0000  0.0031
     8. (0.98871) BD ( 1) C   2 - N   7  
                ( 40.97%)   0.6401* C   2 s( 29.54%)p 2.38( 70.38%)d 0.00(  0.07%)
                                            0.0001  0.5434  0.0079 -0.0118  0.0005
                                            0.8243 -0.0373  0.0053  0.1391 -0.0542
                                            0.0212  0.0112  0.0019  0.0016  0.0068
                                            0.0006  0.0004  0.0214 -0.0147
                ( 59.03%)   0.7683* N   7 s( 32.21%)p 2.10( 67.57%)d 0.01(  0.22%)
                                           -0.0003  0.5670 -0.0240 -0.0018  0.0021
                                           -0.8206  0.0183 -0.0040 -0.0332 -0.0241
                                            0.0184  0.0050  0.0004  0.0000  0.0257
                                           -0.0001 -0.0001  0.0261 -0.0290
     9. (0.92214) BD ( 1) C   3 - S   4  
                ( 59.11%)   0.7688* C   3 s( 25.88%)p 2.86( 74.00%)d 0.00(  0.12%)
                                            0.0001 -0.5085 -0.0024 -0.0139  0.0015
                                           -0.6217  0.0035  0.0281  0.5910 -0.0485
                                            0.0250 -0.0213  0.0008  0.0011  0.0267
                                           -0.0011  0.0003 -0.0082  0.0207
                ( 40.89%)   0.6395* S   4 s( 17.29%)p 4.67( 80.73%)d 0.11(  1.98%)
                                            0.0000  0.0002 -0.3879 -0.1456  0.0355
                                            0.0023  0.0001  0.6441 -0.3921 -0.0404
                                            0.0000 -0.4550  0.1095 -0.0305  0.0002
                                           -0.0788 -0.1033 -0.0159  0.1237 -0.0005
                                            0.0252 -0.0415  0.0460
    10. (0.99253) BD ( 1) C   3 - H   6  
                ( 62.25%)   0.7890* C   3 s( 35.35%)p 1.83( 64.60%)d 0.00(  0.04%)
                                            0.0003 -0.5945  0.0122  0.0014  0.0003
                                            0.7531 -0.0113 -0.0023  0.2802 -0.0046
                                           -0.0021 -0.0140 -0.0003  0.0000 -0.0126
                                            0.0008 -0.0003 -0.0118  0.0120
                ( 37.75%)   0.6144* H   6 s(100.00%)
                                           -1.0000 -0.0065
    11. (0.67799) BD ( 1) S   4 - N   8  
                ( 27.79%)   0.5271* S   4 s( 14.09%)p 5.99( 84.41%)d 0.11(  1.50%)
                                            0.0000  0.0015  0.0932 -0.3634  0.0100
                                            0.0008  0.0001 -0.4924 -0.7014  0.0370
                                           -0.0001  0.0903  0.2077 -0.0745  0.0010
                                           -0.0452 -0.2203 -0.0303  0.0920 -0.0072
                                            0.0593 -0.0518  0.0172
                ( 72.21%)   0.8498* N   8 s( 68.17%)p 0.47( 31.81%)d 0.00(  0.03%)
                                            0.0006  0.4750 -0.6753  0.0012 -0.0025
                                            0.2105  0.3074  0.0633 -0.0344 -0.0749
                                           -0.0261  0.3838  0.1410 -0.0254  0.0015
                                            0.0011 -0.0077 -0.0114  0.0076
    12. (0.92911) BD ( 1) N   8 - H   9  
                ( 65.53%)   0.8095* N   8 s( 26.34%)p 2.79( 73.55%)d 0.00(  0.12%)
                                           -0.0006  0.3776  0.3475  0.0007  0.0021
                                            0.3760 -0.1299 -0.0543  0.7362  0.0436
                                            0.0085  0.1554 -0.0760  0.0194  0.0107
                                            0.0069  0.0222 -0.0145 -0.0174
                ( 34.47%)   0.5871* H   9 s(100.00%)
                                            0.9996  0.0267
    13. (0.89804) BD ( 1) N   8 - H  10  
                ( 60.93%)   0.7806* N   8 s( 31.63%)p 2.16( 68.30%)d 0.00(  0.07%)
                                           -0.0006  0.3340  0.4524  0.0023  0.0019
                                            0.2742 -0.1749 -0.0588 -0.6513  0.0399
                                            0.0193  0.3704 -0.0995  0.0241 -0.0064
                                            0.0061 -0.0239 -0.0065 -0.0044
                ( 39.07%)   0.6250* H  10 s(100.00%)
                                            0.9975  0.0713
    14. (0.99965) CR ( 1) C   1           s(100.00%)p 0.00(  0.00%)
                                            1.0000  0.0001  0.0000  0.0000  0.0000
                                            0.0002  0.0000  0.0000 -0.0001  0.0000
                                            0.0000 -0.0003  0.0000  0.0000  0.0000
                                            0.0000  0.0000  0.0000  0.0000
    15. (0.99952) CR ( 1) C   2           s(100.00%)p 0.00(  0.00%)
                                            1.0000  0.0002  0.0000  0.0000  0.0000
                                           -0.0002  0.0000  0.0000  0.0003  0.0000
                                            0.0000  0.0000  0.0000  0.0000  0.0000
                                            0.0000  0.0000  0.0000  0.0000
    16. (0.99952) CR ( 1) C   3           s(100.00%)p 0.00(  0.00%)
                                            1.0000  0.0001  0.0000  0.0000  0.0000
                                           -0.0002  0.0000  0.0000 -0.0002  0.0000
                                            0.0000  0.0001  0.0000  0.0000  0.0000
                                            0.0000  0.0000  0.0000  0.0000
    17. (1.00000) CR ( 1) S   4           s(100.00%)
                                            1.0000  0.0000  0.0000  0.0000  0.0000
                                            0.0000  0.0000  0.0000  0.0000  0.0000
                                            0.0000  0.0000  0.0000  0.0000  0.0000
                                            0.0000  0.0000  0.0000  0.0000  0.0000
                                            0.0000  0.0000  0.0000
    18. (0.99963) CR ( 2) S   4           s(100.00%)p 0.00(  0.00%)d 0.00(  0.00%)
                                            0.0000  1.0000  0.0002  0.0006  0.0000
                                            0.0000  0.0000  0.0004  0.0012  0.0000
                                            0.0000 -0.0005 -0.0003  0.0001  0.0000
                                           -0.0002  0.0004  0.0000 -0.0002  0.0000
                                           -0.0001  0.0001  0.0000
    19. (0.99993) CR ( 3) S   4           s(  0.00%)p 1.00(100.00%)
                                            0.0000  0.0000  0.0000  0.0000  0.0000
                                            0.0000  1.0000 -0.0001  0.0001  0.0000
                                            0.0000  0.0000  0.0000  0.0000  0.0000
                                           -0.0001  0.0000  0.0000  0.0000  0.0000
                                            0.0000  0.0000  0.0000
    20. (0.99992) CR ( 4) S   4           s(  0.00%)p 1.00(100.00%)
                                            0.0000  0.0000  0.0001  0.0000  0.0000
                                            0.0000  0.0000 -0.0001  0.0000  0.0000
                                            1.0000 -0.0002  0.0000  0.0000  0.0000
                                           -0.0001  0.0000  0.0000  0.0000  0.0000
                                            0.0000  0.0000  0.0000
    21. (0.99998) CR ( 5) S   4           s(  0.00%)p 1.00(100.00%)d 0.00(  0.00%)
                                            0.0000  0.0000  0.0000  0.0004  0.0000
                                            0.0000  0.0000  0.0003  0.0009  0.0000
                                            0.0000  0.0000 -0.0003  0.0001  1.0000
                                           -0.0006  0.0003  0.0000 -0.0001  0.0000
                                           -0.0001  0.0001  0.0000
    22. (0.99966) CR ( 1) N   7           s(100.00%)p 0.00(  0.00%)
                                            1.0000  0.0002  0.0000  0.0000  0.0000
                                           -0.0002  0.0000  0.0000  0.0000  0.0000
                                            0.0000  0.0001  0.0000  0.0000  0.0000
                                            0.0000  0.0000  0.0000  0.0000
    23. (0.99970) CR ( 1) N   8           s(100.00%)p 0.00(  0.00%)
                                            1.0000 -0.0002  0.0009  0.0000  0.0000
                                            0.0002 -0.0004 -0.0001  0.0001  0.0001
                                            0.0000  0.0006 -0.0002  0.0001  0.0000
                                            0.0000  0.0000  0.0000  0.0000
    24. (0.99130) LP ( 1) S   4           s( 66.90%)p 0.49( 33.08%)d 0.00(  0.02%)
                                            0.0000 -0.0004  0.8178  0.0039  0.0124
                                           -0.0001  0.0000  0.0761 -0.0143 -0.0025
                                           -0.0002 -0.5696  0.0099 -0.0072  0.0000
                                           -0.0107 -0.0021 -0.0007  0.0061  0.0002
                                            0.0008  0.0067  0.0112
    25. (0.84311) LP ( 2) S   4           s(  0.09%)p99.99( 99.74%)d 1.71(  0.16%)
                                            0.0000 -0.0003  0.0088  0.0294 -0.0010
                                           -0.0003 -0.0001 -0.0423  0.0645 -0.0015
                                           -0.0001  0.0236 -0.0170  0.0071 -0.0007
                                           -0.9944  0.0264 -0.0340 -0.0144  0.0015
                                           -0.0367  0.0062 -0.0040
    26. (0.94687) LP ( 1) N   7           s( 31.37%)p 2.18( 68.49%)d 0.00(  0.14%)
                                            0.0000  0.5594  0.0271  0.0038  0.0002
                                            0.3543  0.0120 -0.0012  0.7474  0.0231
                                           -0.0023 -0.0119 -0.0005  0.0000 -0.0254
                                            0.0006 -0.0004  0.0223  0.0170
    27. (0.91213) LP ( 1) N   8           s( 21.27%)p 3.70( 78.64%)d 0.00(  0.09%)
                                            0.0006  0.4600 -0.0324  0.0014  0.0031
                                            0.2586  0.0267  0.0078 -0.1663 -0.0018
                                           -0.0070 -0.8290  0.0561 -0.0277  0.0035
                                            0.0208 -0.0084 -0.0030 -0.0187
    28. (0.13606) RY*( 1) C   1           s( 56.02%)p 0.78( 43.90%)d 0.00(  0.08%)
                                            0.0000 -0.0225  0.7480  0.0149 -0.0061
                                           -0.0054  0.6345  0.0142 -0.0209  0.0563
                                            0.0352  0.0233  0.1754  0.0010 -0.0128
                                           -0.0056  0.0055 -0.0069  0.0222
    29. (0.00489) RY*( 2) C   1           s(  2.46%)p39.53( 97.32%)d 0.09(  0.22%)
                                            0.0000 -0.0398  0.1423 -0.0092  0.0520
                                            0.0145 -0.1952  0.1207 -0.0426 -0.2831
                                            0.9145 -0.0018 -0.0092 -0.0445  0.0093
                                           -0.0335 -0.0113  0.0287  0.0050
    30. (0.00364) RY*( 3) C   1           s( 46.41%)p 0.76( 35.25%)d 0.40( 18.34%)
                                            0.0000 -0.0164  0.2706  0.6215  0.0656
                                            0.0339 -0.3647  0.3054  0.0321  0.3497
                                           -0.0404 -0.0021 -0.0085 -0.0067  0.2258
                                           -0.0018  0.0105 -0.3637 -0.0073
    31. (0.00189) RY*( 4) C   1           s(  7.76%)p10.29( 79.80%)d 1.60( 12.44%)
                                            0.0000  0.0459  0.1176  0.2455 -0.0368
                                            0.0201 -0.1263 -0.8339 -0.0229  0.0702
                                            0.1014 -0.0125 -0.0611  0.2582 -0.1045
                                           -0.2358  0.2265 -0.0791 -0.0175
    32. (0.00140) RY*( 5) C   1           s(  3.10%)p12.29( 38.04%)d19.01( 58.86%)
                                            0.0000  0.0014  0.1306  0.0055  0.1178
                                           -0.0172 -0.0468  0.1029 -0.0080 -0.1913
                                           -0.1610 -0.0194 -0.3396 -0.4348 -0.1626
                                           -0.7455 -0.0089  0.0099  0.0788
    33. (0.00111) RY*( 6) C   1           s( 11.69%)p 3.67( 42.94%)d 3.88( 45.38%)
                                            0.0000  0.0298  0.2989  0.1536  0.0549
                                           -0.0178 -0.3262 -0.1930 -0.0256 -0.4272
                                           -0.2239  0.0124  0.0957 -0.2069 -0.3199
                                            0.3683 -0.4611  0.0563  0.0070
    34. (0.00106) RY*( 7) C   1           s(  1.69%)p30.50( 51.63%)d27.58( 46.68%)
                                            0.0000  0.0037  0.0679  0.0937  0.0594
                                           -0.0182 -0.1607  0.2701 -0.0042 -0.3976
                                           -0.1843 -0.0167  0.3867  0.2745 -0.2454
                                           -0.0715  0.6242  0.0962  0.0507
    35. (0.00062) RY*( 8) C   1           s( 54.56%)p 0.73( 39.57%)d 0.11(  5.87%)
                                            0.0000  0.0088 -0.3957  0.6087 -0.1355
                                            0.0206  0.4238 -0.0591  0.0306 -0.3576
                                            0.0516 -0.0062  0.2306 -0.1660  0.1901
                                           -0.0893 -0.1200  0.0143 -0.0028
    36. (0.00056) RY*( 9) C   1           s(  4.51%)p20.34( 91.76%)d 0.83(  3.73%)
                                            0.0000 -0.0043  0.0227  0.2054 -0.0487
                                            0.0030  0.1772  0.1895  0.0028 -0.2496
                                           -0.0404  0.0202 -0.6951  0.5503 -0.1220
                                            0.1119 -0.0893  0.0323  0.0301
    37. (0.00023) RY*(10) C   1           s(  5.99%)p 2.43( 14.54%)d13.27( 79.47%)
                                            0.0000  0.0089  0.2172 -0.0756  0.0833
                                           -0.0163 -0.1701 -0.1029  0.0114 -0.2642
                                           -0.1607 -0.0006 -0.0871  0.0475  0.7888
                                           -0.0194  0.0558  0.3899 -0.1306
    38. (0.00001) RY*(11) C   1           s( 96.24%)p 0.03(  3.20%)d 0.01(  0.57%)
    39. (0.00001) RY*(12) C   1           s(  0.90%)p50.27( 45.33%)d59.63( 53.77%)
    40. (0.00002) RY*(13) C   1           s(  8.80%)p 1.87( 16.46%)d 8.50( 74.75%)
    41. (0.00001) RY*(14) C   1           s(  0.08%)p 5.71(  0.43%)d99.99( 99.49%)
    42. (0.00749) RY*( 1) C   2           s( 24.65%)p 2.99( 73.66%)d 0.07(  1.69%)
                                            0.0000 -0.0025  0.4704  0.1587  0.0079
                                           -0.0184 -0.2476 -0.3434 -0.0077 -0.2508
                                           -0.2369  0.0135 -0.5323 -0.3929 -0.0442
                                           -0.0221 -0.0916  0.0776  0.0062
    43. (0.00331) RY*( 2) C   2           s(  1.32%)p71.18( 93.72%)d 3.77(  4.97%)
                                            0.0000  0.0162  0.0374  0.1014 -0.0350
                                            0.0524  0.7597 -0.2724  0.0422  0.3990
                                           -0.3200  0.0020 -0.1176 -0.0764  0.2195
                                           -0.0003 -0.0212  0.0223  0.0234
    44. (0.00253) RY*( 3) C   2           s(  8.81%)p 9.17( 80.82%)d 1.18( 10.37%)
                                            0.0000 -0.0101 -0.1643  0.2404  0.0567
                                           -0.0304  0.3899  0.0281  0.0049 -0.7844
                                            0.1973  0.0016 -0.0167  0.0018  0.3187
                                            0.0087  0.0022  0.0052  0.0446
    45. (0.00092) RY*( 4) C   2           s(  3.81%)p17.85( 68.05%)d 7.38( 28.14%)
                                            0.0000  0.0020 -0.1267  0.1297 -0.0723
                                            0.0070  0.0152  0.0839  0.0114  0.2726
                                            0.5984  0.0237 -0.4244 -0.2448  0.0920
                                            0.4757  0.1327 -0.1704  0.0041
    46. (0.00070) RY*( 5) C   2           s(  3.72%)p 6.57( 24.46%)d19.30( 71.81%)
                                            0.0000  0.0020  0.0769  0.1649 -0.0640
                                            0.0030 -0.0012 -0.0440  0.0114  0.1788
                                            0.4499 -0.0132 -0.0874  0.0197  0.1126
                                           -0.7273 -0.3934 -0.1473  0.0101
    47. (0.00034) RY*( 6) C   2           s( 31.83%)p 1.70( 54.07%)d 0.44( 14.10%)
                                            0.0000  0.0016  0.4407  0.3502 -0.0382
                                           -0.0032 -0.0791 -0.3797  0.0097  0.0570
                                            0.2245 -0.0098  0.5795 -0.0245  0.1231
                                            0.1180  0.3038 -0.1348  0.0386
    48. (0.00019) RY*( 7) C   2           s( 35.87%)p 0.84( 30.11%)d 0.95( 34.02%)
                                            0.0000 -0.0104  0.4769 -0.3391 -0.1272
                                           -0.0135  0.3866  0.1628  0.0109 -0.1054
                                            0.3337 -0.0010  0.0332 -0.0355 -0.3968
                                           -0.0015  0.0358  0.3300 -0.2693
    49. (0.00013) RY*( 8) C   2           s( 40.06%)p 0.33( 13.35%)d 1.16( 46.59%)
                                            0.0000 -0.0027  0.4469 -0.4291  0.1294
                                           -0.0028  0.0062  0.3524  0.0169 -0.0201
                                           -0.0883 -0.0002 -0.0273  0.0089  0.4889
                                            0.0351 -0.0045 -0.4652  0.0960
    50. (0.00006) RY*( 9) C   2           s( 21.68%)p 1.49( 32.29%)d 2.12( 46.02%)
    51. (0.00001) RY*(10) C   2           s( 28.44%)p 0.97( 27.71%)d 1.54( 43.85%)
    52. (0.00000) RY*(11) C   2           s( 89.80%)p 0.06(  4.99%)d 0.06(  5.20%)
    53. (0.00000) RY*(12) C   2           s(  1.13%)p 4.65(  5.27%)d82.55( 93.60%)
    54. (0.00001) RY*(13) C   2           s(  7.65%)p11.71( 89.52%)d 0.37(  2.84%)
    55. (0.00000) RY*(14) C   2           s(  1.24%)p 1.77(  2.20%)d77.74( 96.56%)
    56. (0.03841) RY*( 1) C   3           s( 32.52%)p 2.07( 67.35%)d 0.00(  0.13%)
                                            0.0000  0.0073  0.5694 -0.0301  0.0013
                                            0.0100  0.7393  0.1913 -0.0050 -0.0904
                                            0.0518  0.0206 -0.2680  0.0838  0.0172
                                            0.0110  0.0213  0.0041  0.0206
    57. (0.00143) RY*( 2) C   3           s(  0.78%)p99.99( 85.45%)d17.61( 13.77%)
                                            0.0000 -0.0076  0.0320  0.0820  0.0030
                                           -0.0015  0.2993 -0.2059 -0.0126 -0.0666
                                            0.2087 -0.0254  0.8182  0.0665 -0.0986
                                           -0.2597  0.2142 -0.1205  0.0096
    58. (0.00131) RY*( 3) C   3           s(  3.37%)p26.85( 90.42%)d 1.84(  6.21%)
                                            0.0000  0.0171  0.1825 -0.0072  0.0034
                                           -0.0032 -0.0502  0.3369  0.0477  0.2379
                                           -0.8023 -0.0087  0.2853  0.0645  0.0839
                                           -0.1143  0.1137  0.1695 -0.0181
    59. (0.00090) RY*( 4) C   3           s( 14.86%)p 4.51( 67.03%)d 1.22( 18.11%)
                                            0.0000 -0.0118 -0.0181  0.3849 -0.0017
                                           -0.0295  0.2011 -0.6279  0.0312  0.0537
                                           -0.4451  0.0045 -0.1464 -0.1067 -0.2886
                                            0.1020 -0.1379 -0.2591 -0.0351
    60. (0.00045) RY*( 5) C   3           s(  1.04%)p44.85( 46.62%)d50.36( 52.34%)
                                            0.0000  0.0017  0.0989  0.0048  0.0241
                                            0.0000  0.0777  0.1801  0.0074  0.2002
                                            0.0917 -0.0032  0.2793 -0.5488 -0.0081
                                            0.1311 -0.7113  0.0164 -0.0036
    61. (0.00032) RY*( 6) C   3           s( 12.74%)p 6.02( 76.73%)d 0.83( 10.53%)
                                            0.0000 -0.0052 -0.0295  0.3398  0.1051
                                           -0.0164  0.0124  0.2178  0.0341  0.7935
                                            0.2617  0.0017 -0.0939  0.1064 -0.1669
                                           -0.0009  0.1938 -0.1997  0.0027
    62. (0.00020) RY*( 7) C   3           s( 56.98%)p 0.46( 26.21%)d 0.30( 16.81%)
                                            0.0000  0.0198  0.5257  0.5392  0.0479
                                            0.0019 -0.4281  0.0659 -0.0108 -0.2570
                                            0.0801 -0.0007  0.0439  0.0036  0.2882
                                           -0.0289 -0.0148 -0.2814  0.0693
    63. (0.00003) RY*( 8) C   3           s( 12.71%)p 2.32( 29.48%)d 4.55( 57.81%)
    64. (0.00003) RY*( 9) C   3           s( 52.70%)p 0.25( 13.01%)d 0.65( 34.29%)
    65. (0.00002) RY*(10) C   3           s( 15.90%)p 1.41( 22.44%)d 3.88( 61.66%)
    66. (0.00000) RY*(11) C   3           s(  0.51%)p15.45(  7.93%)d99.99( 91.56%)
    67. (0.00000) RY*(12) C   3           s(  0.88%)p73.29( 64.24%)d39.80( 34.89%)
    68. (0.00000) RY*(13) C   3           s( 87.81%)p 0.02(  2.00%)d 0.12( 10.19%)
    69. (0.00001) RY*(14) C   3           s(  7.29%)p 0.17(  1.24%)d12.54( 91.46%)
    70. (0.00256) RY*( 1) S   4           s(  0.35%)p90.07( 31.92%)d99.99( 67.73%)
                                            0.0000  0.0000 -0.0002  0.0329  0.0496
                                           -0.0002  0.0000  0.0112  0.1224  0.0089
                                            0.0000  0.0010 -0.0029  0.0487  0.0000
                                            0.0037 -0.3381 -0.4327 -0.0217 -0.7751
                                            0.2744  0.0180  0.0205
    71. (0.00190) RY*( 2) S   4           s(  4.76%)p14.32( 68.08%)d 5.71( 27.16%)
                                            0.0000  0.0000  0.0107 -0.1053  0.1838
[...]
   9. BD (   1) C   3 - S   4        / 31. RY*(   5) C   1                    0.34    1.31    0.027
   9. BD (   1) C   3 - S   4        / 41. RY*(   1) C   2                    0.70    1.34    0.039
   9. BD (   1) C   3 - S   4        / 44. RY*(   4) C   2                    0.27    1.18    0.023
   9. BD (   1) C   3 - S   4        /116. BD*(   1) C   1 - N   7            0.34    1.21    0.026
   9. BD (   1) C   3 - S   4        /118. BD*(   1) C   1 - N   8            2.41    1.09    0.065
   9. BD (   1) C   3 - S   4        /121. BD*(   1) C   2 - H   5            2.62    1.09    0.068
   9. BD (   1) C   3 - S   4        /122. BD*(   1) C   2 - N   7            0.60    1.12    0.033
  10. BD (   1) C   3 - H   6        / 42. RY*(   2) C   2                    0.69    1.69    0.043
  10. BD (   1) C   3 - H   6        /119. BD*(   1) C   2 - C   3            1.03    1.15    0.044
  10. BD (   1) C   3 - H   6        /122. BD*(   1) C   2 - N   7            1.67    1.04    0.053
  11. BD (   1) N   8 - H   9        / 29. RY*(   3) C   1                    0.53    1.67    0.038
  11. BD (   1) N   8 - H   9        / 33. RY*(   7) C   1                    0.26    1.73    0.027
  11. BD (   1) N   8 - H   9        /115. BD*(   1) C   1 - S   4            3.15    0.81    0.065
  12. BD (   1) N   8 - H  10        / 27. RY*(   1) C   1                    0.29    1.31    0.025
  12. BD (   1) N   8 - H  10        / 29. RY*(   3) C   1                    0.79    1.68    0.046
  12. BD (   1) N   8 - H  10        /116. BD*(   1) C   1 - N   7            2.21    1.20    0.065
  12. BD (   1) N   8 - H  10        /117. BD*(   2) C   1 - N   7            0.47    0.64    0.024
  13. CR (   1) C   1                / 86. RY*(   2) N   7                    0.37   11.30    0.082
  13. CR (   1) C   1                /103. RY*(   5) N   8                    0.40   11.02    0.084
  13. CR (   1) C   1                /115. BD*(   1) C   1 - S   4            0.31   10.34    0.073
  13. CR (   1) C   1                /122. BD*(   1) C   2 - N   7            0.62   10.63    0.103
  13. CR (   1) C   1                /126. BD*(   1) N   8 - H  10            0.31   10.64    0.073
  14. CR (   1) C   2                / 57. RY*(   3) C   3                    1.14   10.92    0.141
  14. CR (   1) C   2                / 86. RY*(   2) N   7                    0.26   11.22    0.068
  14. CR (   1) C   2                /116. BD*(   1) C   1 - N   7            0.38   10.65    0.080
  14. CR (   1) C   2                /119. BD*(   1) C   2 - C   3            0.59   10.68    0.101
  14. CR (   1) C   2                /123. BD*(   1) C   3 - S   4            0.25   10.30    0.065
  14. CR (   1) C   2                /124. BD*(   1) C   3 - H   6            0.61   10.55    0.102
  15. CR (   1) C   3                / 41. RY*(   1) C   2                    0.80   10.79    0.117
  15. CR (   1) C   3                / 42. RY*(   2) C   2                    0.66   11.21    0.109
  15. CR (   1) C   3                / 84. RY*(   1) H   6                    0.30   10.75    0.072
  15. CR (   1) C   3                /119. BD*(   1) C   2 - C   3            0.67   10.68    0.107
  15. CR (   1) C   3                /121. BD*(   1) C   2 - H   5            0.49   10.54    0.091
  15. CR (   1) C   3                /123. BD*(   1) C   3 - S   4            0.38   10.30    0.080
  17. CR (   2) S   4                / 27. RY*(   1) C   1                    0.95    9.52    0.121
  17. CR (   2) S   4                / 55. RY*(   1) C   3                    0.59    9.74    0.096
  17. CR (   2) S   4                /116. BD*(   1) C   1 - N   7            0.30    9.42    0.068
  17. CR (   2) S   4                /118. BD*(   1) C   1 - N   8            0.49    9.30    0.086
  17. CR (   2) S   4                /124. BD*(   1) C   3 - H   6            0.41    9.32    0.078
  21. CR (   1) N   7                / 27. RY*(   1) C   1                    1.67   14.79    0.199
  21. CR (   1) N   7                / 31. RY*(   5) C   1                    0.56   14.79    0.115
  21. CR (   1) N   7                / 41. RY*(   1) C   2                    1.04   14.82    0.157
  21. CR (   1) N   7                /115. BD*(   1) C   1 - S   4            0.37   14.30    0.094
  21. CR (   1) N   7                /118. BD*(   1) C   1 - N   8            0.38   14.57    0.095
  22. CR (   1) N   8                / 29. RY*(   3) C   1                    1.48   15.22    0.190
  22. CR (   1) N   8                /113. RY*(   1) H   9                    0.30   15.00    0.085
  22. CR (   1) N   8                /114. RY*(   1) H  10                    0.43   14.97    0.102
  22. CR (   1) N   8                /115. BD*(   1) C   1 - S   4            0.36   14.36    0.092
  22. CR (   1) N   8                /116. BD*(   1) C   1 - N   7            0.32   14.75    0.087
  23. LP (   1) S   4                / 27. RY*(   1) C   1                    1.07    1.33    0.048
  23. LP (   1) S   4                / 55. RY*(   1) C   3                    0.55    1.55    0.037
  23. LP (   1) S   4                /116. BD*(   1) C   1 - N   7            1.67    1.22    0.057
  23. LP (   1) S   4                /119. BD*(   1) C   2 - C   3            0.81    1.24    0.040
  24. LP (   2) S   4                / 56. RY*(   2) C   3                    0.74    0.54    0.027
  24. LP (   2) S   4                /117. BD*(   2) C   1 - N   7           13.57    0.25    0.075
  24. LP (   2) S   4                /120. BD*(   2) C   2 - C   3            9.46    0.26    0.063
  25. LP (   1) N   7                / 27. RY*(   1) C   1                    1.78    1.03    0.056
  25. LP (   1) N   7                / 28. RY*(   2) C   1                    1.11    1.79    0.058
  25. LP (   1) N   7                / 31. RY*(   5) C   1                    0.33    1.03    0.024
  25. LP (   1) N   7                / 33. RY*(   7) C   1                    0.33    1.45    0.028
  25. LP (   1) N   7                / 41. RY*(   1) C   2                    1.72    1.05    0.055
  25. LP (   1) N   7                /115. BD*(   1) C   1 - S   4            8.65    0.53    0.086
  25. LP (   1) N   7                /118. BD*(   1) C   1 - N   8            1.17    0.80    0.040
  25. LP (   1) N   7                /119. BD*(   1) C   2 - C   3            3.08    0.95    0.070
  25. LP (   1) N   7                /121. BD*(   1) C   2 - H   5            0.69    0.81    0.030
  25. LP (   1) N   7                /125. BD*(   1) N   8 - H   9            0.41    0.83    0.024
  26. LP (   1) N   8                / 29. RY*(   3) C   1                    0.34    1.32    0.028
  26. LP (   1) N   8                / 30. RY*(   4) C   1                    0.94    2.00    0.058
  26. LP (   1) N   8                / 34. RY*(   8) C   1                    0.32    0.69    0.020
  26. LP (   1) N   8                /116. BD*(   1) C   1 - N   7            0.40    0.85    0.024
  26. LP (   1) N   8                /117. BD*(   2) C   1 - N   7           19.62    0.28    0.099
 115. BD*(   1) C   1 - S   4        / 70. RY*(   2) S   4                    1.34    0.35    0.130
 115. BD*(   1) C   1 - S   4        / 72. RY*(   4) S   4                    0.53    0.68    0.115
 115. BD*(   1) C   1 - S   4        / 74. RY*(   6) S   4                    0.59    0.46    0.100
 115. BD*(   1) C   1 - S   4        /123. BD*(   1) C   3 - S   4            0.85    0.03    0.030
 117. BD*(   2) C   1 - N   7        / 32. RY*(   6) C   1                    0.98    1.55    0.109
 117. BD*(   2) C   1 - N   7        / 71. RY*(   3) S   4                    0.57    0.53    0.048
 117. BD*(   2) C   1 - N   7        / 87. RY*(   3) N   7                    1.06    0.35    0.054
 117. BD*(   2) C   1 - N   7        / 99. RY*(   1) N   8                    0.64    0.37    0.042
 117. BD*(   2) C   1 - N   7        /120. BD*(   2) C   2 - C   3           79.51    0.01    0.065
 120. BD*(   2) C   2 - C   3        / 45. RY*(   5) C   2                    0.53    1.38    0.091
 120. BD*(   2) C   2 - C   3        / 49. RY*(   9) C   2                    0.36    0.56    0.048
 120. BD*(   2) C   2 - C   3        / 58. RY*(   4) C   3                    0.61    1.31    0.096
 120. BD*(   2) C   2 - C   3        / 69. RY*(   1) S   4                    0.30    0.64    0.047


 Natural Bond Orbitals (Summary):

                                                            Principal Delocalizations
           NBO                        Occupancy    Energy   (geminal,vicinal,remote)
 ====================================================================================
 Molecular unit  1  (C3H4N2S)
     1. BD (   1) C   1 - S   4          0.98790    -0.50536  124(v),125(v),101(v),85(v)
                                                    86(v),57(v),121(r),119(v)
     2. BD (   1) C   1 - N   7          0.99231    -0.72281  121(v),42(v),100(v),126(v)
                                                    122(g),118(g),101(v),41(v)
                                                    27(g)
     3. BD (   2) C   1 - N   7          0.93201    -0.17205  120(v),43(v),99(v),71(v)
                                                    117(g),49(v),126(v)
     4. BD (   1) C   1 - N   8          0.99611    -0.66931  122(v),116(g),88(v),85(v)
                                                    29(g),126(g),73(v)
     5. BD (   1) C   2 - C   3          0.99415    -0.60029  124(g),121(g),86(v),118(r)
                                                    122(g),70(v),115(v)
     6. BD (   2) C   2 - C   3          0.96879    -0.14184  117(v),69(v),87(v)
     7. BD (   1) C   2 - H   5          0.98925    -0.40383  123(v),116(v),119(g),57(v)
                                                    85(v)
     8. BD (   1) C   2 - N   7          0.98823    -0.62900  118(v),27(v),124(v),28(v)
                                                    119(g),116(g),55(v),31(v)
     9. BD (   1) C   3 - S   4          0.98627    -0.49769  121(v),118(v),28(v),41(v)
                                                    122(v),116(v),31(v),44(v)
    10. BD (   1) C   3 - H   6          0.99261    -0.42056  122(v),119(g),42(v)
    11. BD (   1) N   8 - H   9          0.99051    -0.49134  115(v),29(v),33(v)
    12. BD (   1) N   8 - H  10          0.99147    -0.49358  116(v),29(v),117(v),27(v)
    13. CR (   1) C   1                  0.99963   -10.01682  122(v),103(v),86(v),115(g)
                                                    126(v)
    14. CR (   1) C   2                  0.99952    -9.94225  57(v),124(v),119(g),116(v)
                                                    86(v),123(v)
    15. CR (   1) C   3                  0.99952    -9.94284  41(v),119(g),42(v),121(v)
                                                    123(g),84(v)
    16. CR (   1) S   4                  1.00000   -87.61788   
    17. CR (   2) S   4                  0.99963    -8.70552  27(v),55(v),118(v),124(v)
                                                    116(v)
    18. CR (   3) S   4                  0.99993    -5.78292   
    19. CR (   4) S   4                  0.99992    -5.78034   
    20. CR (   5) S   4                  0.99998    -5.77821   
    21. CR (   1) N   7                  0.99966   -13.97982  27(v),41(v),31(v),118(v)
                                                    115(v)
    22. CR (   1) N   8                  0.99971   -14.03754  29(v),114(v),115(v),116(v)
                                                    113(v)
    23. LP (   1) S   4                  0.99142    -0.51120  116(v),27(v),119(v),55(v)
    24. LP (   2) S   4                  0.84497    -0.10567  117(v),120(v),56(v)
    25. LP (   1) N   7                  0.94096    -0.21246  115(v),119(v),27(v),41(v)
                                                    118(v),28(v),121(v),125(r)
                                                    31(v),33(v)
    26. LP (   1) N   8                  0.89706    -0.13943  117(v),30(v),116(v),29(v)
                                                    34(v)
    27. RY*(   1) C   1                  0.00490     0.81505   
    28. RY*(   2) C   1                  0.00391     1.57745   
    29. RY*(   3) C   1                  0.00209     1.18176   
    30. RY*(   4) C   1                  0.00138     1.86172   
    31. RY*(   5) C   1                  0.00118     0.81273   
    32. RY*(   6) C   1                  0.00115     1.69184   
    33. RY*(   7) C   1                  0.00087     1.23563   
    34. RY*(   8) C   1                  0.00059     0.55061   
    35. RY*(   9) C   1                  0.00025     2.17214   
    36. RY*(  10) C   1                  0.00008     1.67955   
    37. RY*(  11) C   1                  0.00002     2.06906   
    38. RY*(  12) C   1                  0.00001     1.50705   
    39. RY*(  13) C   1                  0.00000     1.27151   
    40. RY*(  14) C   1                  0.00000     2.52892   
    41. RY*(   1) C   2                  0.00346     0.84217   
    42. RY*(   2) C   2                  0.00253     1.26471   
    43. RY*(   3) C   2                  0.00099     1.04547   
    44. RY*(   4) C   2                  0.00092     0.67966   
    45. RY*(   5) C   2                  0.00055     1.54016   
    46. RY*(   6) C   2                  0.00020     1.40458   
    47. RY*(   7) C   2                  0.00013     1.89220   
    48. RY*(   8) C   2                  0.00007     1.73803   
    49. RY*(   9) C   2                  0.00001     0.71245   
    50. RY*(  10) C   2                  0.00000     3.89668   
    51. RY*(  11) C   2                  0.00000     0.48635   
    52. RY*(  12) C   2                  0.00000     1.91652   
    53. RY*(  13) C   2                  0.00001     1.73298   
    54. RY*(  14) C   2                  0.00000     2.47322   
    55. RY*(   1) C   3                  0.00154     1.03558   
    56. RY*(   2) C   3                  0.00150     0.43402   
    57. RY*(   3) C   3                  0.00107     0.97305   
    58. RY*(   4) C   3                  0.00046     1.46508   
    59. RY*(   5) C   3                  0.00043     0.48709   
    60. RY*(   6) C   3                  0.00021     1.17481   
    61. RY*(   7) C   3                  0.00005     1.10025   
    62. RY*(   8) C   3                  0.00003     1.58034   
    63. RY*(   9) C   3                  0.00001     2.32918   
    64. RY*(  10) C   3                  0.00001     0.63733   
    65. RY*(  11) C   3                  0.00000     1.76995   
    66. RY*(  12) C   3                  0.00000     4.06041   
    67. RY*(  13) C   3                  0.00000     1.25573   
    68. RY*(  14) C   3                  0.00001     2.34309   
    69. RY*(   1) S   4                  0.00259     0.79613   
    70. RY*(   2) S   4                  0.00202     0.67294   
    71. RY*(   3) S   4                  0.00134     0.66964   
    72. RY*(   4) S   4                  0.00097     0.99909   
    73. RY*(   5) S   4                  0.00054     0.66519   
    74. RY*(   6) S   4                  0.00050     0.78022   
    75. RY*(   7) S   4                  0.00025     1.12089   
    76. RY*(   8) S   4                  0.00013     0.76044   
    77. RY*(   9) S   4                  0.00009     0.75952   
    78. RY*(  10) S   4                  0.00002     0.70072   
    79. RY*(  11) S   4                  0.00002     1.32772   
    80. RY*(  12) S   4                  0.00000     0.83774   
    81. RY*(  13) S   4                  0.00001     1.23467   
    82. RY*(  14) S   4                  0.00000     3.87315   
    83. RY*(   1) H   5                  0.00036     0.83434   
    84. RY*(   1) H   6                  0.00029     0.81185   
    85. RY*(   1) N   7                  0.00275     0.67385   
    86. RY*(   2) N   7                  0.00124     1.28121   
    87. RY*(   3) N   7                  0.00106     0.49763   
    88. RY*(   4) N   7                  0.00081     1.78634   
    89. RY*(   5) N   7                  0.00036     0.90099   
    90. RY*(   6) N   7                  0.00016     1.48419   
    91. RY*(   7) N   7                  0.00015     1.91363   
    92. RY*(   8) N   7                  0.00007     1.95352   
    93. RY*(   9) N   7                  0.00004     1.94701   
    94. RY*(  10) N   7                  0.00002     2.23265   
    95. RY*(  11) N   7                  0.00000     1.23148   
    96. RY*(  12) N   7                  0.00001     1.98810   
    97. RY*(  13) N   7                  0.00000     2.03798   
    98. RY*(  14) N   7                  0.00001     2.35444   
    99. RY*(   1) N   8                  0.00251     0.50913   
   100. RY*(   2) N   8                  0.00168     0.92829   
   101. RY*(   3) N   8                  0.00147     1.29298   
   102. RY*(   4) N   8                  0.00038     1.44387   
   103. RY*(   5) N   8                  0.00007     1.00371   
   104. RY*(   6) N   8                  0.00004     1.44884   
   105. RY*(   7) N   8                  0.00002     2.13296   
   106. RY*(   8) N   8                  0.00002     1.32672   
   107. RY*(   9) N   8                  0.00000     0.88325   
   108. RY*(  10) N   8                  0.00000     1.88692   
   109. RY*(  11) N   8                  0.00001     1.85992   
   110. RY*(  12) N   8                  0.00000     1.79608   
   111. RY*(  13) N   8                  0.00000     1.53489   
   112. RY*(  14) N   8                  0.00001     1.98387   
   113. RY*(   1) H   9                  0.00144     0.95803   
   114. RY*(   1) H  10                  0.00084     0.93034   
   115. BD*(   1) C   1 - S   4          0.04269     0.31944   
   116. BD*(   1) C   1 - N   7          0.01084     0.71073   
   117. BD*(   2) C   1 - N   7          0.20486     0.14394  120(v),87(g),32(g),99(v)
                                                    71(v)
   118. BD*(   1) C   1 - N   8          0.01380     0.59118   
   119. BD*(   1) C   2 - C   3          0.01350     0.73333   
   120. BD*(   2) C   2 - C   3          0.13931     0.15524  117(v),58(g),45(g),49(g)
                                                    69(v)
   121. BD*(   1) C   2 - H   5          0.01011     0.59576   
   122. BD*(   1) C   2 - N   7          0.00620     0.61786   
   123. BD*(   1) C   3 - S   4          0.00695     0.35338   
   124. BD*(   1) C   3 - H   6          0.00645     0.61244   
   125. BD*(   1) N   8 - H   9          0.00531     0.61836   
   126. BD*(   1) N   8 - H  10          0.00352     0.62704   
       -------------------------------
              Total Lewis   25.48152  ( 98.0058%)
        Valence non-Lewis    0.46354  (  1.7828%)
        Rydberg non-Lewis    0.05495  (  0.2113%)
       -------------------------------
            Total unit  1   26.00000  (100.0000%)
           Charge unit  1    0.00000
 1\1\GINC-LOCALHOST\SP\UB3LYP\6-31+G(d)\C3H4N2S1(1-,2)\PVBHARATAM\14-Ma
 r-2001\0\\# b3lyp/6-31+g(d) pop=nbo\\ATZ-1\\-1,2\C,0,0.779813,0.211567
 ,0.001781\C,0,-1.211308,1.164614,0.003329\C,0,-1.648098,-0.124763,0.00
 8569\S,0,-0.272995,-1.20905,-0.006852\H,0,-1.858035,2.03491,0.008629\H
 ,0,-2.66025,-0.50439,0.025868\N,0,0.156324,1.356215,0.003751\N,0,2.152
 024,0.083879,-0.076106\H,0,2.641637,0.948989,0.125364\H,0,2.563692,-0.
 723881,0.374182\\Version=EM64L-G09RevB.01\State=2-A\HF=-624.3846082\S2
 =0.75065\S2-1=0.\S2A=0.75\RMSD=3.177e-09\Dipole=-2.3392468,0.3017576,-
 0.3164473\Quadrupole=-5.3964728,0.8528819,4.5435909,2.1025866,-0.64380
 93,0.8284145\PG=C01 [X(C3H4N2S1)]\\@


 My opinions may have changed, but not the fact that I am right.
                       -- Ashleigh Brilliant
 Job cpu time:  0 days  0 hours  2 minutes 59.1 seconds.
 File lengths (MBytes):  RWF=     16 Int=      0 D2E=      0 Chk=      2 Scr=      1
 Normal termination of Gaussian 09 at Wed Mar 14 21:57:06 2001.
