 Entering Gaussian System, Link 0=g09
 Input=thiazole.gjf
 Output=thiazole.log
 Initial command:
 /home/Bharatam/gauss/g09/l1.exe /home/Bharatam/ScratchDirectory/Gau-27317.inp -scrdir=/home/Bharatam/ScratchDirectory/
 Entering Link 1 = /home/Bharatam/gauss/g09/l1.exe PID=     27318.
  
 Copyright (c) 1988,1990,1992,1993,1995,1998,2003,2009,2010,
            Gaussian, Inc.  All Rights Reserved.
  
 This is part of the Gaussian(R) 09 program.  It is based on
 the Gaussian(R) 03 system (copyright 2003, Gaussian, Inc.),
 the Gaussian(R) 98 system (copyright 1998, Gaussian, Inc.),
 the Gaussian(R) 94 system (copyright 1995, Gaussian, Inc.),
 the Gaussian 92(TM) system (copyright 1992, Gaussian, Inc.),
 the Gaussian 90(TM) system (copyright 1990, Gaussian, Inc.),
 the Gaussian 88(TM) system (copyright 1988, Gaussian, Inc.),
 the Gaussian 86(TM) system (copyright 1986, Carnegie Mellon
 University), and the Gaussian 82(TM) system (copyright 1983,
 Carnegie Mellon University). Gaussian is a federally registered
 trademark of Gaussian, Inc.
  
 This software contains proprietary and confidential information,
 including trade secrets, belonging to Gaussian, Inc.
  
 This software is provided under written license and may be
 used, copied, transmitted, or stored only in accord with that
 written license.
  
 The following legend is applicable only to US Government
 contracts under FAR:
  
                    RESTRICTED RIGHTS LEGEND
  
 Use, reproduction and disclosure by the US Government is
 subject to restrictions as set forth in subparagraphs (a)
 and (c) of the Commercial Computer Software - Restricted
 Rights clause in FAR 52.227-19.
  
 Gaussian, Inc.
 340 Quinnipiac St., Bldg. 40, Wallingford CT 06492
  
  
 ---------------------------------------------------------------
 Warning -- This program may not be used in any manner that
 competes with the business of Gaussian, Inc. or will provide
 assistance to any competitor of Gaussian, Inc.  The licensee
 of this program is prohibited from giving any competitor of
 Gaussian, Inc. access to this program.  By using this program,
 the user acknowledges that Gaussian, Inc. is engaged in the
 business of creating and licensing software in the field of
 computational chemistry and represents and warrants to the
 licensee that it is not a competitor of Gaussian, Inc. and that
 it will not use this program in any manner prohibited above.
 ---------------------------------------------------------------
  

 Cite this work as:
 Gaussian 09, Revision B.01,
 M. J. Frisch, G. W. Trucks, H. B. Schlegel, G. E. Scuseria, 
 M. A. Robb, J. R. Cheeseman, G. Scalmani, V. Barone, B. Mennucci, 
 G. A. Petersson, H. Nakatsuji, M. Caricato, X. Li, H. P. Hratchian, 
 A. F. Izmaylov, J. Bloino, G. Zheng, J. L. Sonnenberg, M. Hada, 
 M. Ehara, K. Toyota, R. Fukuda, J. Hasegawa, M. Ishida, T. Nakajima, 
 Y. Honda, O. Kitao, H. Nakai, T. Vreven, J. A. Montgomery, Jr., 
 J. E. Peralta, F. Ogliaro, M. Bearpark, J. J. Heyd, E. Brothers, 
 K. N. Kudin, V. N. Staroverov, T. Keith, R. Kobayashi, J. Normand, 
 K. Raghavachari, A. Rendell, J. C. Burant, S. S. Iyengar, J. Tomasi, 
 M. Cossi, N. Rega, J. M. Millam, M. Klene, J. E. Knox, J. B. Cross, 
 V. Bakken, C. Adamo, J. Jaramillo, R. Gomperts, R. E. Stratmann, 
 O. Yazyev, A. J. Austin, R. Cammi, C. Pomelli, J. W. Ochterski, 
 R. L. Martin, K. Morokuma, V. G. Zakrzewski, G. A. Voth, 
 P. Salvador, J. J. Dannenberg, S. Dapprich, A. D. Daniels, 
 O. Farkas, J. B. Foresman, J. V. Ortiz, J. Cioslowski, 
 and D. J. Fox, Gaussian, Inc., Wallingford CT, 2010.
 
 ******************************************
 Gaussian 09:  EM64L-G09RevB.01 12-Aug-2010
                20-Aug-2014 
 ******************************************
 %nprocshared=4
 Will use up to    4 processors via shared memory.
 %mem=4GB
 %chk=thiazole.chk
 ----------------------------------------------------
 # opt freq=noraman b3lyp/6-31+g(d) geom=connectivity
 ----------------------------------------------------
 1/14=-1,18=20,19=15,26=3,38=1,57=2/1,3;
 2/9=110,12=2,17=6,18=5,40=1/2;
 3/5=1,6=6,7=11,11=2,16=1,25=1,30=1,71=1,74=-5/1,2,3;
 4//1;
 5/5=2,38=5/2;
 6/7=2,8=2,9=2,10=2,28=1/1;
 7//1,2,3,16;
 1/14=-1,18=20,19=15/3(2);
 2/9=110/2;
 99//99;
 2/9=110/2;
 3/5=1,6=6,7=11,11=2,16=1,25=1,30=1,71=1,74=-5/1,2,3;
 4/5=5,16=3/1;
 5/5=2,38=5/2;
 7//1,2,3,16;
 1/14=-1,18=20,19=15/3(-5);
 2/9=110/2;
 6/7=2,8=2,9=2,10=2,19=2,28=1/1;
 99/9=1/99;
 ------------
 Opt_thaizole
 ------------
 Symbolic Z-matrix:
 Charge =  0 Multiplicity = 1
 C                    -0.54285   0.24269   0.00031 
 C                     1.31508   1.64132  -0.02354 
 C                     0.35437   2.59981   0.00509 
 S                    -1.22697   1.86083  -0.20371 
 H                    -1.1289   -0.63972   0.15131 
 H                     2.36273   1.85888  -0.01948 
 H                     0.5324    3.64637   0.13889 
 N                     0.76586   0.25273  -0.0469 
 

 GradGradGradGradGradGradGradGradGradGradGradGradGradGradGradGradGradGrad
 Berny optimization.
 Initialization pass.
                           ----------------------------
                           !    Initial Parameters    !
                           ! (Angstroms and Degrees)  !
 --------------------------                            --------------------------
 ! Name  Definition              Value          Derivative Info.                !
 --------------------------------------------------------------------------------
 ! R1    R(1,4)                  1.7686         estimate D2E/DX2                !
 ! R2    R(1,5)                  1.07           estimate D2E/DX2                !
 ! R3    R(1,8)                  1.3096         estimate D2E/DX2                !
 ! R4    R(2,3)                  1.3574         estimate D2E/DX2                !
 ! R5    R(2,6)                  1.07           estimate D2E/DX2                !
 ! R6    R(2,8)                  1.4935         estimate D2E/DX2                !
 ! R7    R(3,4)                  1.7579         estimate D2E/DX2                !
 ! R8    R(3,7)                  1.07           estimate D2E/DX2                !
 ! A1    A(4,1,5)              123.9821         estimate D2E/DX2                !
 ! A2    A(4,1,8)              112.0475         estimate D2E/DX2                !
 ! A3    A(5,1,8)              123.9692         estimate D2E/DX2                !
 ! A4    A(3,2,6)              123.3213         estimate D2E/DX2                !
 ! A5    A(3,2,8)              113.3654         estimate D2E/DX2                !
 ! A6    A(6,2,8)              123.3104         estimate D2E/DX2                !
 ! A7    A(2,3,4)              109.7145         estimate D2E/DX2                !
 ! A8    A(2,3,7)              125.1373         estimate D2E/DX2                !
 ! A9    A(4,3,7)              125.1477         estimate D2E/DX2                !
 ! A10   A(1,4,3)               91.3151         estimate D2E/DX2                !
 ! A11   A(1,8,2)              111.9667         estimate D2E/DX2                !
 ! D1    D(5,1,4,3)            167.6378         estimate D2E/DX2                !
 ! D2    D(8,1,4,3)            -11.9672         estimate D2E/DX2                !
 ! D3    D(4,1,8,2)              9.7989         estimate D2E/DX2                !
 ! D4    D(5,1,8,2)           -169.8061         estimate D2E/DX2                !
 ! D5    D(6,2,3,4)            173.3687         estimate D2E/DX2                !
 ! D6    D(6,2,3,7)             -6.8825         estimate D2E/DX2                !
 ! D7    D(8,2,3,4)             -7.2328         estimate D2E/DX2                !
 ! D8    D(8,2,3,7)            172.5159         estimate D2E/DX2                !
 ! D9    D(3,2,8,1)             -1.66           estimate D2E/DX2                !
 ! D10   D(6,2,8,1)            177.7386         estimate D2E/DX2                !
 ! D11   D(2,3,4,1)             10.5833         estimate D2E/DX2                !
 ! D12   D(7,3,4,1)           -169.1654         estimate D2E/DX2                !
 --------------------------------------------------------------------------------
 Trust Radius=3.00D-01 FncErr=1.00D-07 GrdErr=1.00D-06
 Number of steps in this run=     41 maximum allowed number of steps=    100.
 GradGradGradGradGradGradGradGradGradGradGradGradGradGradGradGradGradGrad

                          Input orientation:                          
 ---------------------------------------------------------------------
 Center     Atomic      Atomic             Coordinates (Angstroms)
 Number     Number       Type             X           Y           Z
 ---------------------------------------------------------------------
      1          6           0       -0.542851    0.242690    0.000312
      2          6           0        1.315083    1.641325   -0.023543
      3          6           0        0.354367    2.599807    0.005090
      4         16           0       -1.226966    1.860829   -0.203705
      5          1           0       -1.128903   -0.639718    0.151309
      6          1           0        2.362725    1.858877   -0.019475
      7          1           0        0.532397    3.646373    0.138894
      8          7           0        0.765859    0.252727   -0.046896
 ---------------------------------------------------------------------
                    Distance matrix (angstroms):
                    1          2          3          4          5
     1  C    0.000000
     2  C    2.325654   0.000000
     3  C    2.522107   1.357381   0.000000
     4  S    1.768619   2.557861   1.757924   0.000000
     5  H    1.070000   3.347655   3.565949   2.527526   0.000000
     6  H    3.324880   1.070000   2.140814   3.594416   4.296930
     7  H    3.572174   2.158518   1.070000   2.530001   4.596809
     8  N    1.309600   1.493451   2.383446   2.565528   2.103774
                    6          7          8
     6  H    0.000000
     7  H    2.563265   0.000000
     8  N    2.265050   3.406737   0.000000
 Stoichiometry    C3H3NS
 Framework group  C1[X(C3H3NS)]
 Deg. of freedom    18
 Full point group                 C1      NOp   1
 Largest Abelian subgroup         C1      NOp   1
 Largest concise Abelian subgroup C1      NOp   1
                         Standard orientation:                         
 ---------------------------------------------------------------------
 Center     Atomic      Atomic             Coordinates (Angstroms)
 Number     Number       Type             X           Y           Z
 ---------------------------------------------------------------------
      1          6           0        0.113747    1.260202    0.076962
      2          6           0       -1.358006   -0.537291   -0.030893
      3          6           0       -0.203021   -1.241933    0.078517
      4         16           0        1.170662   -0.152335   -0.048252
      5          1           0        0.464947    2.256969    0.244336
      6          1           0       -2.323188   -0.995750   -0.086922
      7          1           0       -0.138601   -2.300002    0.224261
      8          7           0       -1.150010    0.941469   -0.051023
 ---------------------------------------------------------------------
 Rotational constants (GHZ):      7.7165829      5.5137336      3.2316426
 Standard basis: 6-31+G(d) (6D, 7F)
 There are   105 symmetry adapted basis functions of A   symmetry.
 Integral buffers will be    131072 words long.
 Raffenetti 2 integral format.
 Two-electron integral symmetry is turned on.
   105 basis functions,   196 primitive gaussians,   105 cartesian basis functions
    22 alpha electrons       22 beta electrons
       nuclear repulsion energy       201.0605307713 Hartrees.
 NAtoms=    8 NActive=    8 NUniq=    8 SFac= 1.00D+00 NAtFMM=   50 NAOKFM=F Big=F
 One-electron integrals computed using PRISM.
 NBasis=   105 RedAO= T  NBF=   105
 NBsUse=   105 1.00D-06 NBFU=   105
 Harris functional with IExCor=  402 diagonalized for initial guess.
 ExpMin= 4.05D-02 ExpMax= 2.19D+04 ExpMxC= 3.30D+03 IAcc=2 IRadAn=         0 AccDes= 0.00D+00
 HarFok:  IExCor=  402 AccDes= 0.00D+00 IRadAn=         0 IDoV= 1
 ScaDFX=  1.000000  1.000000  1.000000  1.000000
 FoFCou: FMM=F IPFlag=           0 FMFlag=      100000 FMFlg1=           0
         NFxFlg=           0 DoJE=T BraDBF=F KetDBF=T FulRan=T
         Omega=  0.000000  0.000000  1.000000  0.000000  0.000000 ICntrl=     500 IOpCl=  0
         NMat0=    1 NMatS0=    1 NMatT0=    0 NMatD0=    1 NMtDS0=    0 NMtDT0=    0
         I1Cent=           4 NGrid=           0.
 Petite list used in FoFCou.
 Initial guess orbital symmetries:
       Occupied  (A) (A) (A) (A) (A) (A) (A) (A) (A) (A) (A) (A)
                 (A) (A) (A) (A) (A) (A) (A) (A) (A) (A)
       Virtual   (A) (A) (A) (A) (A) (A) (A) (A) (A) (A) (A) (A)
                 (A) (A) (A) (A) (A) (A) (A) (A) (A) (A) (A) (A)
                 (A) (A) (A) (A) (A) (A) (A) (A) (A) (A) (A) (A)
                 (A) (A) (A) (A) (A) (A) (A) (A) (A) (A) (A) (A)
                 (A) (A) (A) (A) (A) (A) (A) (A) (A) (A) (A) (A)
                 (A) (A) (A) (A) (A) (A) (A) (A) (A) (A) (A) (A)
                 (A) (A) (A) (A) (A) (A) (A) (A) (A) (A) (A)
 The electronic state of the initial guess is 1-A.
 Requested convergence on RMS density matrix=1.00D-08 within 128 cycles.
 Requested convergence on MAX density matrix=1.00D-06.
 Requested convergence on             energy=1.00D-06.
 No special actions if energy rises.
 Keep R1 ints in memory in canonical form, NReq=16534073.
 SCF Done:  E(RB3LYP) =  -569.038223436     A.U. after   13 cycles
             Convg  =    0.5763D-08             -V/T =  2.0056

 **********************************************************************

            Population analysis using the SCF density.

 **********************************************************************

 Orbital symmetries:
       Occupied  (A) (A) (A) (A) (A) (A) (A) (A) (A) (A) (A) (A)
                 (A) (A) (A) (A) (A) (A) (A) (A) (A) (A)
       Virtual   (A) (A) (A) (A) (A) (A) (A) (A) (A) (A) (A) (A)
                 (A) (A) (A) (A) (A) (A) (A) (A) (A) (A) (A) (A)
                 (A) (A) (A) (A) (A) (A) (A) (A) (A) (A) (A) (A)
                 (A) (A) (A) (A) (A) (A) (A) (A) (A) (A) (A) (A)
                 (A) (A) (A) (A) (A) (A) (A) (A) (A) (A) (A) (A)
                 (A) (A) (A) (A) (A) (A) (A) (A) (A) (A) (A) (A)
                 (A) (A) (A) (A) (A) (A) (A) (A) (A) (A) (A)
 The electronic state is 1-A.
 Alpha  occ. eigenvalues --  -88.92792 -14.35967 -10.26800 -10.24069 -10.23877
 Alpha  occ. eigenvalues --   -7.98801  -5.95222  -5.94841  -5.94497  -0.95179
 Alpha  occ. eigenvalues --   -0.80269  -0.75352  -0.60374  -0.58504  -0.50806
 Alpha  occ. eigenvalues --   -0.44984  -0.43421  -0.40583  -0.37675  -0.29216
 Alpha  occ. eigenvalues --   -0.27536  -0.26521
 Alpha virt. eigenvalues --   -0.04324  -0.01029   0.00749   0.01339   0.02406
 Alpha virt. eigenvalues --    0.03468   0.04491   0.05451   0.05905   0.07143
 Alpha virt. eigenvalues --    0.08486   0.09398   0.09452   0.11296   0.11931
 Alpha virt. eigenvalues --    0.13810   0.13983   0.14970   0.16190   0.18953
 Alpha virt. eigenvalues --    0.19476   0.20683   0.21846   0.23448   0.25504
 Alpha virt. eigenvalues --    0.26815   0.29236   0.31833   0.33333   0.41778
 Alpha virt. eigenvalues --    0.48066   0.49732   0.50792   0.54053   0.56900
 Alpha virt. eigenvalues --    0.61772   0.63892   0.64428   0.70696   0.76979
 Alpha virt. eigenvalues --    0.78800   0.80661   0.82778   0.89474   0.91381
 Alpha virt. eigenvalues --    0.93538   0.96678   0.97884   0.99677   1.00329
 Alpha virt. eigenvalues --    1.02647   1.05472   1.07853   1.12240   1.14137
 Alpha virt. eigenvalues --    1.19231   1.32391   1.38932   1.44463   1.48102
 Alpha virt. eigenvalues --    1.51472   1.68954   1.76310   1.78227   1.85251
 Alpha virt. eigenvalues --    1.96771   2.03925   2.16385   2.21000   2.24754
 Alpha virt. eigenvalues --    2.25537   2.30447   2.45841   2.49030   2.64177
 Alpha virt. eigenvalues --    2.66941   2.88749   2.90379   3.92139   4.06635
 Alpha virt. eigenvalues --    4.18781   4.29122   4.35848
          Condensed to atoms (all electrons):
              1          2          3          4          5          6
     1  C    5.458972   0.003654  -0.119292   0.131953   0.386646   0.018655
     2  C    0.003654   5.261833   0.338090  -0.054119   0.009925   0.391435
     3  C   -0.119292   0.338090   5.550296   0.203798  -0.000666  -0.070519
     4  S    0.131953  -0.054119   0.203798  15.694129  -0.052807   0.002839
     5  H    0.386646   0.009925  -0.000666  -0.052807   0.486614  -0.000027
     6  H    0.018655   0.391435  -0.070519   0.002839  -0.000027   0.503114
     7  H    0.004839  -0.000582   0.324667  -0.017083  -0.000022  -0.001469
     8  N    0.291761   0.290989  -0.032558  -0.045294  -0.060685  -0.047719
              7          8
     1  C    0.004839   0.291761
     2  C   -0.000582   0.290989
     3  C    0.324667  -0.032558
     4  S   -0.017083  -0.045294
     5  H   -0.000022  -0.060685
     6  H   -0.001469  -0.047719
     7  H    0.456363   0.006152
     8  N    0.006152   6.783556
 Mulliken atomic charges:
              1
     1  C   -0.177188
     2  C   -0.241225
     3  C   -0.193817
     4  S    0.136585
     5  H    0.231021
     6  H    0.203691
     7  H    0.227136
     8  N   -0.186203
 Sum of Mulliken atomic charges =   0.00000
 Mulliken charges with hydrogens summed into heavy atoms:
              1
     1  C    0.053833
     2  C   -0.037534
     3  C    0.033319
     4  S    0.136585
     8  N   -0.186203
 Sum of Mulliken charges with hydrogens summed into heavy atoms =   0.00000
 Electronic spatial extent (au):  <R**2>=            391.0979
 Charge=              0.0000 electrons
 Dipole moment (field-independent basis, Debye):
    X=              0.9396    Y=             -1.2849    Z=              0.2182  Tot=              1.6066
 Quadrupole moment (field-independent basis, Debye-Ang):
   XX=            -37.8385   YY=            -31.7578   ZZ=            -38.9245
   XY=              5.2439   XZ=             -0.0136   YZ=              0.2506
 Traceless Quadrupole moment (field-independent basis, Debye-Ang):
   XX=             -1.6649   YY=              4.4158   ZZ=             -2.7509
   XY=              5.2439   XZ=             -0.0136   YZ=              0.2506
 Octapole moment (field-independent basis, Debye-Ang**2):
  XXX=             -0.9326  YYY=             -2.2554  ZZZ=             -0.2265  XYY=              6.8447
  XXY=             -7.2458  XXZ=             -1.0344  XZZ=              1.0791  YZZ=              0.8869
  YYZ=              2.6115  XYZ=              0.1256
 Hexadecapole moment (field-independent basis, Debye-Ang**3):
 XXXX=           -273.8773 YYYY=           -193.8117 ZZZZ=            -50.2075 XXXY=             20.3258
 XXXZ=              0.1032 YYYX=             13.3638 YYYZ=              0.5709 ZZZX=             -0.0823
 ZZZY=              0.2721 XXYY=            -87.0881 XXZZ=            -58.8943 YYZZ=            -49.7902
 XXYZ=              0.8435 YYXZ=              0.0162 ZZXY=              0.0419
 N-N= 2.010605307713D+02 E-N=-1.744109925808D+03  KE= 5.658441268960D+02
 Calling FoFJK, ICntrl=      2127 FMM=F ISym2X=0 I1Cent= 0 IOpClX= 0 NMat=1 NMatS=1 NMatT=0.
 ***** Axes restored to original set *****
 -------------------------------------------------------------------
 Center     Atomic                   Forces (Hartrees/Bohr)
 Number     Number              X              Y              Z
 -------------------------------------------------------------------
      1        6           0.040356731    0.037804143   -0.014526068
      2        6          -0.044504586   -0.048660823   -0.000710727
      3        6          -0.003862810   -0.024130387   -0.009827968
      4       16          -0.010839538    0.007067635    0.018908557
      5        1          -0.007653890   -0.007562306   -0.005479416
      6        1           0.010612323   -0.008998994    0.002305724
      7        1          -0.005304577    0.010763049   -0.004880448
      8        7           0.021196347    0.033717682    0.014210346
 -------------------------------------------------------------------
 Cartesian Forces:  Max     0.048660823 RMS     0.021541865

 GradGradGradGradGradGradGradGradGradGradGradGradGradGradGradGradGradGrad
 Berny optimization.
 Internal  Forces:  Max     0.062778034 RMS     0.015701649
 Search for a local minimum.
 Step number   1 out of a maximum of   41
 All quantities printed in internal units (Hartrees-Bohrs-Radians)
 Mixed Optimization -- RFO/linear search
 Second derivative matrix not updated -- first step.
 ITU=  0
     Eigenvalues ---    0.01318   0.01570   0.01993   0.02045   0.02196
     Eigenvalues ---    0.15999   0.16000   0.16000   0.22350   0.23171
     Eigenvalues ---    0.28160   0.29282   0.32537   0.37230   0.37230
     Eigenvalues ---    0.37230   0.50789   0.62069
 RFO step:  Lambda=-3.28088892D-02 EMin= 1.31811570D-02
 Linear search not attempted -- first point.
 Iteration  1 RMS(Cart)=  0.09757633 RMS(Int)=  0.00821358
 Iteration  2 RMS(Cart)=  0.00784869 RMS(Int)=  0.00370629
 Iteration  3 RMS(Cart)=  0.00003452 RMS(Int)=  0.00370611
 Iteration  4 RMS(Cart)=  0.00000013 RMS(Int)=  0.00370611
 Variable       Old X    -DE/DX   Delta X   Delta X   Delta X     New X
                                 (Linear)    (Quad)   (Total)
    R1        3.34220  -0.00413   0.00000  -0.01127  -0.01198   3.33022
    R2        2.02201   0.00966   0.00000   0.02383   0.02383   2.04584
    R3        2.47479  -0.01562   0.00000  -0.02494  -0.02501   2.44978
    R4        2.56508   0.00480   0.00000   0.00871   0.00928   2.57436
    R5        2.02201   0.00857   0.00000   0.02115   0.02115   2.04316
    R6        2.82221  -0.06278   0.00000  -0.17675  -0.17607   2.64615
    R7        3.32200  -0.01482   0.00000  -0.04007  -0.04029   3.28171
    R8        2.02201   0.00903   0.00000   0.02230   0.02230   2.04431
    A1        2.16390  -0.01538   0.00000  -0.06585  -0.06415   2.09975
    A2        1.95560   0.02567   0.00000   0.10477   0.09744   2.05304
    A3        2.16367  -0.01031   0.00000  -0.03949  -0.03773   2.12594
    A4        2.15236   0.00594   0.00000   0.03601   0.03785   2.19021
    A5        1.97860   0.01011   0.00000   0.04242   0.03795   2.01655
    A6        2.15217  -0.01605   0.00000  -0.07806  -0.07617   2.07600
    A7        1.91488   0.00653   0.00000   0.03816   0.03212   1.94700
    A8        2.18406   0.00419   0.00000   0.01949   0.02109   2.20514
    A9        2.18424  -0.01074   0.00000  -0.05802  -0.05683   2.12741
   A10        1.59375  -0.02585   0.00000  -0.07148  -0.08124   1.51251
   A11        1.95419  -0.01339   0.00000  -0.05169  -0.05883   1.89535
    D1        2.92583   0.00713   0.00000   0.13934   0.13887   3.06470
    D2       -0.20887   0.01057   0.00000   0.22876   0.23159   0.02272
    D3        0.17102  -0.00782   0.00000  -0.18348  -0.18856  -0.01754
    D4       -2.96368  -0.00435   0.00000  -0.09394  -0.09425  -3.05793
    D5        3.02585   0.00573   0.00000   0.10105   0.10018   3.12604
    D6       -0.12012   0.00086   0.00000   0.01429   0.01386  -0.10627
    D7       -0.12624   0.00582   0.00000   0.13927   0.14253   0.01630
    D8        3.01097   0.00095   0.00000   0.05251   0.05621   3.06718
    D9       -0.02897   0.00217   0.00000   0.03188   0.02940   0.00042
   D10        3.10212   0.00241   0.00000   0.07088   0.06953  -3.11153
   D11        0.18471  -0.01232   0.00000  -0.21351  -0.20508  -0.02036
   D12       -2.95249  -0.00750   0.00000  -0.12698  -0.12342  -3.07592
         Item               Value     Threshold  Converged?
 Maximum Force            0.062778     0.000450     NO 
 RMS     Force            0.015702     0.000300     NO 
 Maximum Displacement     0.311945     0.001800     NO 
 RMS     Displacement     0.101399     0.001200     NO 
 Predicted change in Energy=-2.110933D-02
 GradGradGradGradGradGradGradGradGradGradGradGradGradGradGradGradGradGrad

                          Input orientation:                          
 ---------------------------------------------------------------------
 Center     Atomic      Atomic             Coordinates (Angstroms)
 Number     Number       Type             X           Y           Z
 ---------------------------------------------------------------------
      1          6           0       -0.485922    0.309742   -0.027437
      2          6           0        1.284151    1.599969    0.007953
      3          6           0        0.327208    2.568873   -0.028414
      4         16           0       -1.270248    1.887821   -0.038631
      5          1           0       -1.077817   -0.594024    0.042680
      6          1           0        2.351621    1.771691    0.007306
      7          1           0        0.493064    3.636303    0.029711
      8          7           0        0.809652    0.282534    0.008817
 ---------------------------------------------------------------------
                    Distance matrix (angstroms):
                    1          2          3          4          5
     1  C    0.000000
     2  C    2.190684   0.000000
     3  C    2.401011   1.362292   0.000000
     4  S    1.762278   2.570989   1.736606   0.000000
     5  H    1.082613   3.223928   3.461657   2.490622   0.000000
     6  H    3.192202   1.081194   2.176012   3.624022   4.166402
     7  H    3.468096   2.184708   1.081801   2.484176   4.512594
     8  N    1.296367   1.400281   2.336983   2.627771   2.081356
                    6          7          8
     6  H    0.000000
     7  H    2.632778   0.000000
     8  N    2.143656   3.368744   0.000000
 Stoichiometry    C3H3NS
 Framework group  C1[X(C3H3NS)]
 Deg. of freedom    18
 Full point group                 C1      NOp   1
 Largest Abelian subgroup         C1      NOp   1
 Largest concise Abelian subgroup C1      NOp   1
                         Standard orientation:                         
 ---------------------------------------------------------------------
 Center     Atomic      Atomic             Coordinates (Angstroms)
 Number     Number       Type             X           Y           Z
 ---------------------------------------------------------------------
      1          6           0        0.067422   -1.191275   -0.013278
      2          6           0        1.285866    0.629217    0.004001
      3          6           0        0.053513    1.209693   -0.009921
      4         16           0       -1.212026    0.020527   -0.000127
      5          1           0       -0.176084   -2.243648    0.059296
      6          1           0        2.228905    1.157797   -0.012168
      7          1           0       -0.157018    2.268902    0.053685
      8          7           0        1.293687   -0.771041    0.002343
 ---------------------------------------------------------------------
 Rotational constants (GHZ):      8.5519339      5.2887861      3.2682699
 Standard basis: 6-31+G(d) (6D, 7F)
 There are   105 symmetry adapted basis functions of A   symmetry.
 Integral buffers will be    131072 words long.
 Raffenetti 2 integral format.
 Two-electron integral symmetry is turned on.
   105 basis functions,   196 primitive gaussians,   105 cartesian basis functions
    22 alpha electrons       22 beta electrons
       nuclear repulsion energy       203.2607054112 Hartrees.
 NAtoms=    8 NActive=    8 NUniq=    8 SFac= 1.00D+00 NAtFMM=   50 NAOKFM=F Big=F
 One-electron integrals computed using PRISM.
 NBasis=   105 RedAO= T  NBF=   105
 NBsUse=   105 1.00D-06 NBFU=   105
 Initial guess read from the read-write file.
 B after Tr=     0.000000    0.000000    0.000000
         Rot=    1.000000    0.000000    0.000000    0.000000 Ang=   0.00 deg.
 Initial guess orbital symmetries:
       Occupied  (A) (A) (A) (A) (A) (A) (A) (A) (A) (A) (A) (A)
                 (A) (A) (A) (A) (A) (A) (A) (A) (A) (A)
       Virtual   (A) (A) (A) (A) (A) (A) (A) (A) (A) (A) (A) (A)
                 (A) (A) (A) (A) (A) (A) (A) (A) (A) (A) (A) (A)
                 (A) (A) (A) (A) (A) (A) (A) (A) (A) (A) (A) (A)
                 (A) (A) (A) (A) (A) (A) (A) (A) (A) (A) (A) (A)
                 (A) (A) (A) (A) (A) (A) (A) (A) (A) (A) (A) (A)
                 (A) (A) (A) (A) (A) (A) (A) (A) (A) (A) (A) (A)
                 (A) (A) (A) (A) (A) (A) (A) (A) (A) (A) (A)
 Harris functional with IExCor=  402 diagonalized for initial guess.
 ExpMin= 4.05D-02 ExpMax= 2.19D+04 ExpMxC= 3.30D+03 IAcc=2 IRadAn=         0 AccDes= 0.00D+00
 HarFok:  IExCor=  402 AccDes= 0.00D+00 IRadAn=         0 IDoV= 1
 ScaDFX=  1.000000  1.000000  1.000000  1.000000
 FoFCou: FMM=F IPFlag=           0 FMFlag=      100000 FMFlg1=           0
         NFxFlg=           0 DoJE=T BraDBF=F KetDBF=T FulRan=T
         Omega=  0.000000  0.000000  1.000000  0.000000  0.000000 ICntrl=     500 IOpCl=  0
         NMat0=    1 NMatS0=    1 NMatT0=    0 NMatD0=    1 NMtDS0=    0 NMtDT0=    0
         I1Cent=           4 NGrid=           0.
 Petite list used in FoFCou.
 Requested convergence on RMS density matrix=1.00D-08 within 128 cycles.
 Requested convergence on MAX density matrix=1.00D-06.
 Requested convergence on             energy=1.00D-06.
 No special actions if energy rises.
 Keep R1 ints in memory in canonical form, NReq=16534073.
 SCF Done:  E(RB3LYP) =  -569.054640565     A.U. after   14 cycles
             Convg  =    0.3113D-08             -V/T =  2.0053
 Calling FoFJK, ICntrl=      2127 FMM=F ISym2X=0 I1Cent= 0 IOpClX= 0 NMat=1 NMatS=1 NMatT=0.
 ***** Axes restored to original set *****
 -------------------------------------------------------------------
 Center     Atomic                   Forces (Hartrees/Bohr)
 Number     Number              X              Y              Z
 -------------------------------------------------------------------
      1        6          -0.009373716   -0.009981202    0.005825036
      2        6          -0.004286201   -0.012871194   -0.003184841
      3        6           0.002974031    0.008690309    0.004658132
      4       16           0.011047731   -0.006890215   -0.000958011
      5        1          -0.003148032   -0.000392690   -0.003268225
      6        1           0.001554422    0.000623222    0.001187454
      7        1          -0.001575835    0.000833830   -0.002781944
      8        7           0.002807601    0.019987939   -0.001477601
 -------------------------------------------------------------------
 Cartesian Forces:  Max     0.019987939 RMS     0.006884692

 GradGradGradGradGradGradGradGradGradGradGradGradGradGradGradGradGradGrad
 Berny optimization.
 Using GEDIIS/GDIIS optimizer.
 Internal  Forces:  Max     0.011982515 RMS     0.004445471
 Search for a local minimum.
 Step number   2 out of a maximum of   41
 All quantities printed in internal units (Hartrees-Bohrs-Radians)
 Mixed Optimization -- RFO/linear search
 Update second derivatives using D2CorX and points    1    2
 DE= -1.64D-02 DEPred=-2.11D-02 R= 7.78D-01
 SS=  1.41D+00  RLast= 5.36D-01 DXNew= 5.0454D-01 1.6086D+00
 Trust test= 7.78D-01 RLast= 5.36D-01 DXMaxT set to 5.05D-01
 ITU=  1  0
 Use linear search instead of GDIIS.
     Eigenvalues ---    0.01420   0.01786   0.02046   0.02204   0.02489
     Eigenvalues ---    0.15480   0.15951   0.16074   0.22196   0.26521
     Eigenvalues ---    0.27529   0.29387   0.30767   0.37065   0.37230
     Eigenvalues ---    0.37246   0.50522   0.62139
 RFO step:  Lambda=-3.19637094D-03 EMin= 1.42023754D-02
 Quartic linear search produced a step of -0.04489.
 Iteration  1 RMS(Cart)=  0.04090980 RMS(Int)=  0.00267508
 Iteration  2 RMS(Cart)=  0.00201886 RMS(Int)=  0.00124966
 Iteration  3 RMS(Cart)=  0.00000290 RMS(Int)=  0.00124966
 Iteration  4 RMS(Cart)=  0.00000000 RMS(Int)=  0.00124966
 Variable       Old X    -DE/DX   Delta X   Delta X   Delta X     New X
                                 (Linear)    (Quad)   (Total)
    R1        3.33022  -0.00562   0.00054  -0.01946  -0.01841   3.31181
    R2        2.04584   0.00184  -0.00107   0.00741   0.00634   2.05218
    R3        2.44978   0.00312   0.00112   0.00184   0.00339   2.45317
    R4        2.57436   0.00073  -0.00042   0.00214   0.00117   2.57553
    R5        2.04316   0.00163  -0.00095   0.00658   0.00563   2.04880
    R6        2.64615  -0.00717   0.00790  -0.04110  -0.03338   2.61276
    R7        3.28171   0.00021   0.00181  -0.00415  -0.00259   3.27912
    R8        2.04431   0.00043  -0.00100   0.00368   0.00268   2.04698
    A1        2.09975   0.00360   0.00288   0.00726   0.00609   2.10584
    A2        2.05304  -0.01198  -0.00437  -0.03562  -0.04159   2.01144
    A3        2.12594   0.00869   0.00169   0.04130   0.03885   2.16478
    A4        2.19021  -0.00074  -0.00170   0.00120  -0.00056   2.18965
    A5        2.01655   0.00080  -0.00170   0.00751   0.00596   2.02250
    A6        2.07600  -0.00005   0.00342  -0.00887  -0.00551   2.07049
    A7        1.94700  -0.00720  -0.00144  -0.02607  -0.02798   1.91902
    A8        2.20514   0.00553  -0.00095   0.03125   0.02979   2.23493
    A9        2.12741   0.00183   0.00255  -0.00058   0.00144   2.12884
   A10        1.51251   0.00899   0.00365   0.02529   0.03065   1.54316
   A11        1.89535   0.00942   0.00264   0.02873   0.03298   1.92833
    D1        3.06470   0.00271  -0.00623   0.14719   0.13941  -3.07907
    D2        0.02272  -0.00117  -0.01040   0.00093  -0.00916   0.01356
    D3       -0.01754   0.00099   0.00846   0.00704   0.01556  -0.00198
    D4       -3.05793  -0.00261   0.00423  -0.13939  -0.13647   3.08879
    D5        3.12604  -0.00025  -0.00450   0.00944   0.00480   3.13084
    D6       -0.10627   0.00174  -0.00062   0.06637   0.06591  -0.04036
    D7        0.01630  -0.00066  -0.00640   0.01545   0.00911   0.02540
    D8        3.06718   0.00132  -0.00252   0.07237   0.07021   3.13739
    D9        0.00042  -0.00017  -0.00132  -0.01432  -0.01592  -0.01550
   D10       -3.11153  -0.00054  -0.00312  -0.00890  -0.01200  -3.12354
   D11       -0.02036   0.00085   0.00921  -0.00920  -0.00054  -0.02091
   D12       -3.07592  -0.00128   0.00554  -0.06520  -0.05910  -3.13502
         Item               Value     Threshold  Converged?
 Maximum Force            0.011983     0.000450     NO 
 RMS     Force            0.004445     0.000300     NO 
 Maximum Displacement     0.133547     0.001800     NO 
 RMS     Displacement     0.040566     0.001200     NO 
 Predicted change in Energy=-1.686097D-03
 GradGradGradGradGradGradGradGradGradGradGradGradGradGradGradGradGradGrad

                          Input orientation:                          
 ---------------------------------------------------------------------
 Center     Atomic      Atomic             Coordinates (Angstroms)
 Number     Number       Type             X           Y           Z
 ---------------------------------------------------------------------
      1          6           0       -0.491463    0.294757    0.016400
      2          6           0        1.282367    1.601148    0.017029
      3          6           0        0.335977    2.581394   -0.014443
      4         16           0       -1.248907    1.875104    0.003803
      5          1           0       -1.093309   -0.608093   -0.027990
      6          1           0        2.354555    1.761462    0.004779
      7          1           0        0.485835    3.654173   -0.021309
      8          7           0        0.806654    0.302966    0.023717
 ---------------------------------------------------------------------
                    Distance matrix (angstroms):
                    1          2          3          4          5
     1  C    0.000000
     2  C    2.202982   0.000000
     3  C    2.431937   1.362911   0.000000
     4  S    1.752534   2.546090   1.735234   0.000000
     5  H    1.085969   3.244474   3.495121   2.488270   0.000000
     6  H    3.201746   1.084176   2.178833   3.605254   4.183734
     7  H    3.498887   2.202463   1.083217   2.484964   4.545399
     8  N    1.298163   1.382615   2.326849   2.587923   2.107738
                    6          7          8
     6  H    0.000000
     7  H    2.659915   0.000000
     8  N    2.126868   3.366829   0.000000
 Stoichiometry    C3H3NS
 Framework group  C1[X(C3H3NS)]
 Deg. of freedom    18
 Full point group                 C1      NOp   1
 Largest Abelian subgroup         C1      NOp   1
 Largest concise Abelian subgroup C1      NOp   1
                         Standard orientation:                         
 ---------------------------------------------------------------------
 Center     Atomic      Atomic             Coordinates (Angstroms)
 Number     Number       Type             X           Y           Z
 ---------------------------------------------------------------------
      1          6           0       -0.031848   -1.209228   -0.000295
      2          6           0       -1.290907    0.598492   -0.007355
      3          6           0       -0.079251    1.222214    0.012350
      4         16           0        1.193916    0.043315   -0.004324
      5          1           0        0.247699   -2.257373    0.050440
      6          1           0       -2.254385    1.095431    0.006709
      7          1           0        0.124120    2.286166    0.009953
      8          7           0       -1.258294   -0.783734   -0.003730
 ---------------------------------------------------------------------
 Rotational constants (GHZ):      8.4500379      5.4211500      3.3027025
 Standard basis: 6-31+G(d) (6D, 7F)
 There are   105 symmetry adapted basis functions of A   symmetry.
 Integral buffers will be    131072 words long.
 Raffenetti 2 integral format.
 Two-electron integral symmetry is turned on.
   105 basis functions,   196 primitive gaussians,   105 cartesian basis functions
    22 alpha electrons       22 beta electrons
       nuclear repulsion energy       203.9915611958 Hartrees.
 NAtoms=    8 NActive=    8 NUniq=    8 SFac= 1.00D+00 NAtFMM=   50 NAOKFM=F Big=F
 One-electron integrals computed using PRISM.
 NBasis=   105 RedAO= T  NBF=   105
 NBsUse=   105 1.00D-06 NBFU=   105
 Initial guess read from the read-write file.
 B after Tr=     0.000000    0.000000    0.000000
         Rot=    1.000000    0.000000    0.000000    0.000000 Ang=   0.00 deg.
 Initial guess orbital symmetries:
       Occupied  (A) (A) (A) (A) (A) (A) (A) (A) (A) (A) (A) (A)
                 (A) (A) (A) (A) (A) (A) (A) (A) (A) (A)
       Virtual   (A) (A) (A) (A) (A) (A) (A) (A) (A) (A) (A) (A)
                 (A) (A) (A) (A) (A) (A) (A) (A) (A) (A) (A) (A)
                 (A) (A) (A) (A) (A) (A) (A) (A) (A) (A) (A) (A)
                 (A) (A) (A) (A) (A) (A) (A) (A) (A) (A) (A) (A)
                 (A) (A) (A) (A) (A) (A) (A) (A) (A) (A) (A) (A)
                 (A) (A) (A) (A) (A) (A) (A) (A) (A) (A) (A) (A)
                 (A) (A) (A) (A) (A) (A) (A) (A) (A) (A) (A)
 Harris functional with IExCor=  402 diagonalized for initial guess.
 ExpMin= 4.05D-02 ExpMax= 2.19D+04 ExpMxC= 3.30D+03 IAcc=2 IRadAn=         0 AccDes= 0.00D+00
 HarFok:  IExCor=  402 AccDes= 0.00D+00 IRadAn=         0 IDoV= 1
 ScaDFX=  1.000000  1.000000  1.000000  1.000000
 FoFCou: FMM=F IPFlag=           0 FMFlag=      100000 FMFlg1=           0
         NFxFlg=           0 DoJE=T BraDBF=F KetDBF=T FulRan=T
         Omega=  0.000000  0.000000  1.000000  0.000000  0.000000 ICntrl=     500 IOpCl=  0
         NMat0=    1 NMatS0=    1 NMatT0=    0 NMatD0=    1 NMtDS0=    0 NMtDT0=    0
         I1Cent=           4 NGrid=           0.
 Petite list used in FoFCou.
 Requested convergence on RMS density matrix=1.00D-08 within 128 cycles.
 Requested convergence on MAX density matrix=1.00D-06.
 Requested convergence on             energy=1.00D-06.
 No special actions if energy rises.
 Keep R1 ints in memory in canonical form, NReq=16534073.
 SCF Done:  E(RB3LYP) =  -569.056104284     A.U. after   14 cycles
             Convg  =    0.3317D-08             -V/T =  2.0053
 Calling FoFJK, ICntrl=      2127 FMM=F ISym2X=0 I1Cent= 0 IOpClX= 0 NMat=1 NMatS=1 NMatT=0.
 ***** Axes restored to original set *****
 -------------------------------------------------------------------
 Center     Atomic                   Forces (Hartrees/Bohr)
 Number     Number              X              Y              Z
 -------------------------------------------------------------------
      1        6          -0.004080267   -0.000395413   -0.001573480
      2        6           0.002125594   -0.005778267   -0.002348658
      3        6          -0.001582005    0.003980595    0.002593515
      4       16           0.000888256   -0.000659518   -0.001449162
      5        1           0.000541948    0.001113706    0.002051676
      6        1          -0.000267952    0.000615699    0.000833846
      7        1          -0.000988430   -0.000937444   -0.000018963
      8        7           0.003362855    0.002060642   -0.000088774
 -------------------------------------------------------------------
 Cartesian Forces:  Max     0.005778267 RMS     0.002192890

 GradGradGradGradGradGradGradGradGradGradGradGradGradGradGradGradGradGrad
 Berny optimization.
 Using GEDIIS/GDIIS optimizer.
 Internal  Forces:  Max     0.003763384 RMS     0.001202884
 Search for a local minimum.
 Step number   3 out of a maximum of   41
 All quantities printed in internal units (Hartrees-Bohrs-Radians)
 Mixed Optimization -- RFO/linear search
 Update second derivatives using D2CorX and points    2    3
 DE= -1.46D-03 DEPred=-1.69D-03 R= 8.68D-01
 SS=  1.41D+00  RLast= 2.45D-01 DXNew= 8.4853D-01 7.3638D-01
 Trust test= 8.68D-01 RLast= 2.45D-01 DXMaxT set to 7.36D-01
 ITU=  1  1  0
 Use linear search instead of GDIIS.
     Eigenvalues ---    0.01408   0.01916   0.02104   0.02313   0.02819
     Eigenvalues ---    0.14842   0.16024   0.16061   0.21702   0.24131
     Eigenvalues ---    0.27685   0.29377   0.30131   0.37194   0.37226
     Eigenvalues ---    0.37401   0.51058   0.61780
 RFO step:  Lambda=-4.96174345D-04 EMin= 1.40828723D-02
 Quartic linear search produced a step of -0.09282.
 Iteration  1 RMS(Cart)=  0.02152194 RMS(Int)=  0.00054918
 Iteration  2 RMS(Cart)=  0.00050846 RMS(Int)=  0.00020821
 Iteration  3 RMS(Cart)=  0.00000013 RMS(Int)=  0.00020821
 Variable       Old X    -DE/DX   Delta X   Delta X   Delta X     New X
                                 (Linear)    (Quad)   (Total)
    R1        3.31181  -0.00093   0.00171  -0.00793  -0.00627   3.30554
    R2        2.05218  -0.00131  -0.00059  -0.00077  -0.00135   2.05083
    R3        2.45317   0.00305  -0.00032   0.00405   0.00374   2.45691
    R4        2.57553   0.00376  -0.00011   0.00715   0.00708   2.58261
    R5        2.04880  -0.00018  -0.00052   0.00171   0.00119   2.04998
    R6        2.61276  -0.00197   0.00310  -0.02008  -0.01692   2.59585
    R7        3.27912  -0.00043   0.00024  -0.00363  -0.00343   3.27569
    R8        2.04698  -0.00107  -0.00025  -0.00108  -0.00133   2.04566
    A1        2.10584  -0.00012  -0.00057  -0.00177  -0.00222   2.10361
    A2        2.01144  -0.00001   0.00386  -0.00581  -0.00207   2.00937
    A3        2.16478   0.00018  -0.00361   0.00888   0.00539   2.17018
    A4        2.18965  -0.00052   0.00005  -0.00113  -0.00161   2.18804
    A5        2.02250  -0.00021  -0.00055   0.00297   0.00184   2.02434
    A6        2.07049   0.00077   0.00051   0.00004   0.00002   2.07051
    A7        1.91902  -0.00028   0.00260  -0.00604  -0.00374   1.91529
    A8        2.23493   0.00103  -0.00277   0.01351   0.01063   2.24556
    A9        2.12884  -0.00073  -0.00013  -0.00630  -0.00655   2.12229
   A10        1.54316   0.00052  -0.00284   0.00481   0.00161   1.54476
   A11        1.92833   0.00001  -0.00306   0.00542   0.00228   1.93061
    D1       -3.07907  -0.00196  -0.01294  -0.05912  -0.07185   3.13226
    D2        0.01356  -0.00077   0.00085  -0.03059  -0.02982  -0.01626
    D3       -0.00198   0.00029  -0.00144   0.00718   0.00571   0.00373
    D4        3.08879   0.00152   0.01267   0.03644   0.04931   3.13810
    D5        3.13084   0.00010  -0.00045   0.00984   0.00937   3.14020
    D6       -0.04036   0.00079  -0.00612   0.05512   0.04907   0.00871
    D7        0.02540  -0.00113  -0.00085  -0.05242  -0.05328  -0.02787
    D8        3.13739  -0.00044  -0.00652  -0.00714  -0.01358   3.12382
    D9       -0.01550   0.00057   0.00148   0.02994   0.03152   0.01602
   D10       -3.12354  -0.00055   0.00111  -0.02780  -0.02664   3.13301
   D11       -0.02091   0.00102   0.00005   0.04454   0.04450   0.02359
   D12       -3.13502   0.00035   0.00549   0.00211   0.00776  -3.12726
         Item               Value     Threshold  Converged?
 Maximum Force            0.003763     0.000450     NO 
 RMS     Force            0.001203     0.000300     NO 
 Maximum Displacement     0.070137     0.001800     NO 
 RMS     Displacement     0.021542     0.001200     NO 
 Predicted change in Energy=-2.689580D-04
 GradGradGradGradGradGradGradGradGradGradGradGradGradGradGradGradGradGrad

                          Input orientation:                          
 ---------------------------------------------------------------------
 Center     Atomic      Atomic             Coordinates (Angstroms)
 Number     Number       Type             X           Y           Z
 ---------------------------------------------------------------------
      1          6           0       -0.490250    0.296487    0.003687
      2          6           0        1.283204    1.596415   -0.002719
      3          6           0        0.336370    2.581941   -0.003062
      4         16           0       -1.245616    1.873856   -0.029239
      5          1           0       -1.095269   -0.604454    0.009125
      6          1           0        2.356057    1.756463    0.010325
      7          1           0        0.477391    3.655220    0.001720
      8          7           0        0.809823    0.306981    0.012148
 ---------------------------------------------------------------------
                    Distance matrix (angstroms):
                    1          2          3          4          5
     1  C    0.000000
     2  C    2.198862   0.000000
     3  C    2.430359   1.366658   0.000000
     4  S    1.749216   2.544131   1.733420   0.000000
     5  H    1.085252   3.240540   3.493258   2.483163   0.000000
     6  H    3.198911   1.084804   2.181909   3.603802   4.181576
     7  H    3.495344   2.210889   1.082516   2.478502   4.540720
     8  N    1.300143   1.373663   2.323753   2.584886   2.111895
                    6          7          8
     6  H    0.000000
     7  H    2.671093   0.000000
     8  N    2.119396   3.364718   0.000000
 Stoichiometry    C3H3NS
 Framework group  C1[X(C3H3NS)]
 Deg. of freedom    18
 Full point group                 C1      NOp   1
 Largest Abelian subgroup         C1      NOp   1
 Largest concise Abelian subgroup C1      NOp   1
                         Standard orientation:                         
 ---------------------------------------------------------------------
 Center     Atomic      Atomic             Coordinates (Angstroms)
 Number     Number       Type             X           Y           Z
 ---------------------------------------------------------------------
      1          6           0        0.031486   -1.207624    0.006673
      2          6           0        1.291002    0.594697   -0.009181
      3          6           0        0.077120    1.222305    0.009554
      4         16           0       -1.192383    0.042087   -0.004419
      5          1           0       -0.250699   -2.255536    0.011511
      6          1           0        2.255074    1.092051   -0.007088
      7          1           0       -0.135296    2.283706    0.021688
      8          7           0        1.258772   -0.778555    0.000332
 ---------------------------------------------------------------------
 Rotational constants (GHZ):      8.4838936      5.4269967      3.3099549
 Standard basis: 6-31+G(d) (6D, 7F)
 There are   105 symmetry adapted basis functions of A   symmetry.
 Integral buffers will be    131072 words long.
 Raffenetti 2 integral format.
 Two-electron integral symmetry is turned on.
   105 basis functions,   196 primitive gaussians,   105 cartesian basis functions
    22 alpha electrons       22 beta electrons
       nuclear repulsion energy       204.2114520008 Hartrees.
 NAtoms=    8 NActive=    8 NUniq=    8 SFac= 1.00D+00 NAtFMM=   50 NAOKFM=F Big=F
 One-electron integrals computed using PRISM.
 NBasis=   105 RedAO= T  NBF=   105
 NBsUse=   105 1.00D-06 NBFU=   105
 Initial guess read from the read-write file.
 B after Tr=     0.000000    0.000000    0.000000
         Rot=    1.000000    0.000000    0.000000    0.000000 Ang=   0.00 deg.
 Initial guess orbital symmetries:
       Occupied  (A) (A) (A) (A) (A) (A) (A) (A) (A) (A) (A) (A)
                 (A) (A) (A) (A) (A) (A) (A) (A) (A) (A)
       Virtual   (A) (A) (A) (A) (A) (A) (A) (A) (A) (A) (A) (A)
                 (A) (A) (A) (A) (A) (A) (A) (A) (A) (A) (A) (A)
                 (A) (A) (A) (A) (A) (A) (A) (A) (A) (A) (A) (A)
                 (A) (A) (A) (A) (A) (A) (A) (A) (A) (A) (A) (A)
                 (A) (A) (A) (A) (A) (A) (A) (A) (A) (A) (A) (A)
                 (A) (A) (A) (A) (A) (A) (A) (A) (A) (A) (A) (A)
                 (A) (A) (A) (A) (A) (A) (A) (A) (A) (A) (A)
 Harris functional with IExCor=  402 diagonalized for initial guess.
 ExpMin= 4.05D-02 ExpMax= 2.19D+04 ExpMxC= 3.30D+03 IAcc=2 IRadAn=         0 AccDes= 0.00D+00
 HarFok:  IExCor=  402 AccDes= 0.00D+00 IRadAn=         0 IDoV= 1
 ScaDFX=  1.000000  1.000000  1.000000  1.000000
 FoFCou: FMM=F IPFlag=           0 FMFlag=      100000 FMFlg1=           0
         NFxFlg=           0 DoJE=T BraDBF=F KetDBF=T FulRan=T
         Omega=  0.000000  0.000000  1.000000  0.000000  0.000000 ICntrl=     500 IOpCl=  0
         NMat0=    1 NMatS0=    1 NMatT0=    0 NMatD0=    1 NMtDS0=    0 NMtDT0=    0
         I1Cent=           4 NGrid=           0.
 Petite list used in FoFCou.
 Requested convergence on RMS density matrix=1.00D-08 within 128 cycles.
 Requested convergence on MAX density matrix=1.00D-06.
 Requested convergence on             energy=1.00D-06.
 No special actions if energy rises.
 Keep R1 ints in memory in canonical form, NReq=16534073.
 SCF Done:  E(RB3LYP) =  -569.056218900     A.U. after   14 cycles
             Convg  =    0.3393D-08             -V/T =  2.0053
 Calling FoFJK, ICntrl=      2127 FMM=F ISym2X=0 I1Cent= 0 IOpClX= 0 NMat=1 NMatS=1 NMatT=0.
 ***** Axes restored to original set *****
 -------------------------------------------------------------------
 Center     Atomic                   Forces (Hartrees/Bohr)
 Number     Number              X              Y              Z
 -------------------------------------------------------------------
      1        6          -0.003216161   -0.000626848   -0.001126153
      2        6           0.003266142    0.001499831    0.002793645
      3        6          -0.000542224    0.002057239   -0.002002058
      4       16           0.000207202   -0.000218537    0.001839433
      5        1           0.000861154    0.000517855   -0.000094612
      6        1          -0.000598037    0.000846033   -0.000215958
      7        1          -0.000041925   -0.000641254   -0.000523016
      8        7           0.000063849   -0.003434319   -0.000671281
 -------------------------------------------------------------------
 Cartesian Forces:  Max     0.003434319 RMS     0.001578629

 GradGradGradGradGradGradGradGradGradGradGradGradGradGradGradGradGradGrad
 Berny optimization.
 Using GEDIIS/GDIIS optimizer.
 Internal  Forces:  Max     0.003687446 RMS     0.001010052
 Search for a local minimum.
 Step number   4 out of a maximum of   41
 All quantities printed in internal units (Hartrees-Bohrs-Radians)
 Mixed Optimization -- RFO/linear search
 Update second derivatives using D2CorX and points    1    2    3    4
 DE= -1.15D-04 DEPred=-2.69D-04 R= 4.26D-01
 Trust test= 4.26D-01 RLast= 1.36D-01 DXMaxT set to 7.36D-01
 ITU=  0  1  1  0
 Use linear search instead of GDIIS.
     Eigenvalues ---    0.01403   0.01793   0.02191   0.02461   0.04442
     Eigenvalues ---    0.14258   0.16051   0.16263   0.21799   0.23704
     Eigenvalues ---    0.27692   0.29452   0.32900   0.37193   0.37201
     Eigenvalues ---    0.37346   0.50216   0.60325
 RFO step:  Lambda=-1.24145146D-04 EMin= 1.40295133D-02
 Quartic linear search produced a step of -0.36118.
 Iteration  1 RMS(Cart)=  0.01054686 RMS(Int)=  0.00013413
 Iteration  2 RMS(Cart)=  0.00010844 RMS(Int)=  0.00006597
 Iteration  3 RMS(Cart)=  0.00000000 RMS(Int)=  0.00006597
 Variable       Old X    -DE/DX   Delta X   Delta X   Delta X     New X
                                 (Linear)    (Quad)   (Total)
    R1        3.30554   0.00002   0.00227  -0.00343  -0.00114   3.30440
    R2        2.05083  -0.00091   0.00049  -0.00303  -0.00254   2.04829
    R3        2.45691   0.00188  -0.00135   0.00481   0.00348   2.46040
    R4        2.58261   0.00127  -0.00256   0.00539   0.00281   2.58542
    R5        2.04998  -0.00047  -0.00043  -0.00071  -0.00114   2.04884
    R6        2.59585   0.00369   0.00611   0.00215   0.00825   2.60410
    R7        3.27569   0.00043   0.00124  -0.00009   0.00113   3.27682
    R8        2.04566  -0.00064   0.00048  -0.00254  -0.00206   2.04360
    A1        2.10361   0.00054   0.00080   0.00224   0.00303   2.10665
    A2        2.00937  -0.00021   0.00075  -0.00462  -0.00390   2.00547
    A3        2.17018  -0.00033  -0.00195   0.00266   0.00070   2.17087
    A4        2.18804  -0.00067   0.00058  -0.00532  -0.00457   2.18347
    A5        2.02434  -0.00055  -0.00066  -0.00101  -0.00165   2.02270
    A6        2.07051   0.00124  -0.00001   0.00636   0.00651   2.07702
    A7        1.91529   0.00002   0.00135  -0.00314  -0.00182   1.91346
    A8        2.24556  -0.00004  -0.00384   0.00536   0.00162   2.24718
    A9        2.12229   0.00003   0.00237  -0.00223   0.00024   2.12253
   A10        1.54476   0.00109  -0.00058   0.00591   0.00527   1.55003
   A11        1.93061  -0.00032  -0.00082   0.00334   0.00246   1.93307
    D1        3.13226   0.00042   0.02595  -0.02825  -0.00232   3.12994
    D2       -0.01626   0.00103   0.01077   0.01414   0.02491   0.00865
    D3        0.00373  -0.00039  -0.00206  -0.00866  -0.01065  -0.00692
    D4        3.13810   0.00024  -0.01781   0.03555   0.01772  -3.12737
    D5        3.14020   0.00036  -0.00338   0.01316   0.00983  -3.13315
    D6        0.00871  -0.00043  -0.01772   0.01424  -0.00350   0.00521
    D7       -0.02787   0.00149   0.01924   0.01440   0.03359   0.00572
    D8        3.12382   0.00071   0.00490   0.01547   0.02026  -3.13910
    D9        0.01602  -0.00074  -0.01138  -0.00393  -0.01536   0.00066
   D10        3.13301   0.00029   0.00962  -0.00296   0.00670   3.13971
   D11        0.02359  -0.00133  -0.01607  -0.01512  -0.03121  -0.00762
   D12       -3.12726  -0.00060  -0.00280  -0.01605  -0.01899   3.13694
         Item               Value     Threshold  Converged?
 Maximum Force            0.003687     0.000450     NO 
 RMS     Force            0.001010     0.000300     NO 
 Maximum Displacement     0.037901     0.001800     NO 
 RMS     Displacement     0.010542     0.001200     NO 
 Predicted change in Energy=-1.170114D-04
 GradGradGradGradGradGradGradGradGradGradGradGradGradGradGradGradGradGrad

                          Input orientation:                          
 ---------------------------------------------------------------------
 Center     Atomic      Atomic             Coordinates (Angstroms)
 Number     Number       Type             X           Y           Z
 ---------------------------------------------------------------------
      1          6           0       -0.493656    0.293279   -0.005522
      2          6           0        1.285696    1.596970    0.006017
      3          6           0        0.338193    2.583826   -0.007034
      4         16           0       -1.243429    1.872987   -0.009182
      5          1           0       -1.098283   -0.606256    0.005381
      6          1           0        2.357264    1.761596    0.017600
      7          1           0        0.477704    3.656202   -0.012525
      8          7           0        0.808221    0.304306    0.007251
 ---------------------------------------------------------------------
                    Distance matrix (angstroms):
                    1          2          3          4          5
     1  C    0.000000
     2  C    2.205864   0.000000
     3  C    2.436921   1.368143   0.000000
     4  S    1.748614   2.544187   1.734020   0.000000
     5  H    1.083907   3.246160   3.498605   2.483530   0.000000
     6  H    3.206904   1.084202   2.180210   3.602515   4.188994
     7  H    3.500406   2.212155   1.081427   2.478339   4.544513
     8  N    1.301986   1.378029   2.327518   2.582692   2.112791
                    6          7          8
     6  H    0.000000
     7  H    2.668929   0.000000
     8  N    2.126813   3.368210   0.000000
 Stoichiometry    C3H3NS
 Framework group  C1[X(C3H3NS)]
 Deg. of freedom    18
 Full point group                 C1      NOp   1
 Largest Abelian subgroup         C1      NOp   1
 Largest concise Abelian subgroup C1      NOp   1
                         Standard orientation:                         
 ---------------------------------------------------------------------
 Center     Atomic      Atomic             Coordinates (Angstroms)
 Number     Number       Type             X           Y           Z
 ---------------------------------------------------------------------
      1          6           0        0.024456    1.211291    0.004820
      2          6           0        1.294290   -0.592405   -0.001339
      3          6           0        0.081169   -1.224968    0.002727
      4         16           0       -1.190576   -0.046209   -0.001537
      5          1           0       -0.261132    2.256840   -0.006248
      6          1           0        2.257213   -1.090638   -0.007424
      7          1           0       -0.129155   -2.285743    0.005107
      8          7           0        1.254684    0.785055   -0.000584
 ---------------------------------------------------------------------
 Rotational constants (GHZ):      8.4405931      5.4361685      3.3065954
 Standard basis: 6-31+G(d) (6D, 7F)
 There are   105 symmetry adapted basis functions of A   symmetry.
 Integral buffers will be    131072 words long.
 Raffenetti 2 integral format.
 Two-electron integral symmetry is turned on.
   105 basis functions,   196 primitive gaussians,   105 cartesian basis functions
    22 alpha electrons       22 beta electrons
       nuclear repulsion energy       204.0697522558 Hartrees.
 NAtoms=    8 NActive=    8 NUniq=    8 SFac= 1.00D+00 NAtFMM=   50 NAOKFM=F Big=F
 One-electron integrals computed using PRISM.
 NBasis=   105 RedAO= T  NBF=   105
 NBsUse=   105 1.00D-06 NBFU=   105
 Initial guess read from the read-write file.
 B after Tr=     0.000000    0.000000    0.000000
         Rot=    1.000000    0.000000    0.000000    0.000000 Ang=   0.00 deg.
 Initial guess orbital symmetries:
       Occupied  (A) (A) (A) (A) (A) (A) (A) (A) (A) (A) (A) (A)
                 (A) (A) (A) (A) (A) (A) (A) (A) (A) (A)
       Virtual   (A) (A) (A) (A) (A) (A) (A) (A) (A) (A) (A) (A)
                 (A) (A) (A) (A) (A) (A) (A) (A) (A) (A) (A) (A)
                 (A) (A) (A) (A) (A) (A) (A) (A) (A) (A) (A) (A)
                 (A) (A) (A) (A) (A) (A) (A) (A) (A) (A) (A) (A)
                 (A) (A) (A) (A) (A) (A) (A) (A) (A) (A) (A) (A)
                 (A) (A) (A) (A) (A) (A) (A) (A) (A) (A) (A) (A)
                 (A) (A) (A) (A) (A) (A) (A) (A) (A) (A) (A)
 Harris functional with IExCor=  402 diagonalized for initial guess.
 ExpMin= 4.05D-02 ExpMax= 2.19D+04 ExpMxC= 3.30D+03 IAcc=2 IRadAn=         0 AccDes= 0.00D+00
 HarFok:  IExCor=  402 AccDes= 0.00D+00 IRadAn=         0 IDoV= 1
 ScaDFX=  1.000000  1.000000  1.000000  1.000000
 FoFCou: FMM=F IPFlag=           0 FMFlag=      100000 FMFlg1=           0
         NFxFlg=           0 DoJE=T BraDBF=F KetDBF=T FulRan=T
         Omega=  0.000000  0.000000  1.000000  0.000000  0.000000 ICntrl=     500 IOpCl=  0
         NMat0=    1 NMatS0=    1 NMatT0=    0 NMatD0=    1 NMtDS0=    0 NMtDT0=    0
         I1Cent=           4 NGrid=           0.
 Petite list used in FoFCou.
 Requested convergence on RMS density matrix=1.00D-08 within 128 cycles.
 Requested convergence on MAX density matrix=1.00D-06.
 Requested convergence on             energy=1.00D-06.
 No special actions if energy rises.
 Keep R1 ints in memory in canonical form, NReq=16534073.
 SCF Done:  E(RB3LYP) =  -569.056291835     A.U. after   14 cycles
             Convg  =    0.2760D-08             -V/T =  2.0053
 Calling FoFJK, ICntrl=      2127 FMM=F ISym2X=0 I1Cent= 0 IOpClX= 0 NMat=1 NMatS=1 NMatT=0.
 ***** Axes restored to original set *****
 -------------------------------------------------------------------
 Center     Atomic                   Forces (Hartrees/Bohr)
 Number     Number              X              Y              Z
 -------------------------------------------------------------------
      1        6           0.000612614    0.002090335    0.001395329
      2        6          -0.000315639   -0.000171563   -0.000158649
      3        6          -0.000346959   -0.001143853    0.000488345
      4       16          -0.000745755    0.000428073   -0.000819190
      5        1           0.000375736   -0.000176885   -0.000463015
      6        1          -0.000174676    0.000014431   -0.000258790
      7        1           0.000046550    0.000096901    0.000098096
      8        7           0.000548128   -0.001137439   -0.000282125
 -------------------------------------------------------------------
 Cartesian Forces:  Max     0.002090335 RMS     0.000710142

 GradGradGradGradGradGradGradGradGradGradGradGradGradGradGradGradGradGrad
 Berny optimization.
 Using GEDIIS/GDIIS optimizer.
 Internal  Forces:  Max     0.001479018 RMS     0.000548063
 Search for a local minimum.
 Step number   5 out of a maximum of   41
 All quantities printed in internal units (Hartrees-Bohrs-Radians)
 Mixed Optimization -- En-DIIS/RFO-DIIS
 Update second derivatives using D2CorX and points    2    3    4    5
 DE= -7.29D-05 DEPred=-1.17D-04 R= 6.23D-01
 SS=  1.41D+00  RLast= 6.75D-02 DXNew= 1.2384D+00 2.0237D-01
 Trust test= 6.23D-01 RLast= 6.75D-02 DXMaxT set to 7.36D-01
 ITU=  1  0  1  1  0
 Use linear search instead of GDIIS.
     Eigenvalues ---    0.01416   0.01815   0.02275   0.03113   0.05324
     Eigenvalues ---    0.14275   0.15841   0.16095   0.22052   0.25242
     Eigenvalues ---    0.27727   0.29524   0.36322   0.37026   0.37227
     Eigenvalues ---    0.38027   0.48756   0.58697
 RFO step:  Lambda=-3.20797709D-05 EMin= 1.41626752D-02
 Quartic linear search produced a step of -0.27193.
 Iteration  1 RMS(Cart)=  0.00384293 RMS(Int)=  0.00003570
 Iteration  2 RMS(Cart)=  0.00002393 RMS(Int)=  0.00002513
 Iteration  3 RMS(Cart)=  0.00000000 RMS(Int)=  0.00002513
 Variable       Old X    -DE/DX   Delta X   Delta X   Delta X     New X
                                 (Linear)    (Quad)   (Total)
    R1        3.30440   0.00003   0.00031   0.00016   0.00047   3.30487
    R2        2.04829  -0.00007   0.00069  -0.00091  -0.00022   2.04807
    R3        2.46040  -0.00018  -0.00095   0.00068  -0.00027   2.46012
    R4        2.58542  -0.00003  -0.00076   0.00073  -0.00004   2.58538
    R5        2.04884  -0.00017   0.00031  -0.00068  -0.00038   2.04847
    R6        2.60410  -0.00063  -0.00224   0.00230   0.00005   2.60415
    R7        3.27682  -0.00040  -0.00031  -0.00036  -0.00066   3.27616
    R8        2.04360   0.00010   0.00056  -0.00042   0.00014   2.04374
    A1        2.10665  -0.00032  -0.00083   0.00062  -0.00027   2.10637
    A2        2.00547   0.00148   0.00106   0.00368   0.00470   2.01017
    A3        2.17087  -0.00115  -0.00019  -0.00398  -0.00424   2.16663
    A4        2.18347  -0.00012   0.00124  -0.00167  -0.00042   2.18305
    A5        2.02270   0.00016   0.00045  -0.00033   0.00015   2.02284
    A6        2.07702  -0.00004  -0.00177   0.00203   0.00027   2.07729
    A7        1.91346   0.00074   0.00050   0.00201   0.00253   1.91599
    A8        2.24718  -0.00041  -0.00044  -0.00130  -0.00175   2.24544
    A9        2.12253  -0.00034  -0.00007  -0.00071  -0.00078   2.12175
   A10        1.55003  -0.00119  -0.00143  -0.00216  -0.00355   1.54649
   A11        1.93307  -0.00118  -0.00067  -0.00316  -0.00380   1.92926
    D1        3.12994   0.00032   0.00063   0.01116   0.01182  -3.14143
    D2        0.00865  -0.00055  -0.00677  -0.00570  -0.01249  -0.00384
    D3       -0.00692   0.00043   0.00290   0.01005   0.01294   0.00602
    D4       -3.12737  -0.00049  -0.00482  -0.00758  -0.01237  -3.13974
    D5       -3.13315  -0.00041  -0.00267  -0.00591  -0.00859   3.14145
    D6        0.00521  -0.00003   0.00095  -0.00535  -0.00440   0.00081
    D7        0.00572  -0.00037  -0.00914   0.00627  -0.00285   0.00287
    D8       -3.13910   0.00001  -0.00551   0.00684   0.00133  -3.13777
    D9        0.00066  -0.00003   0.00418  -0.01061  -0.00641  -0.00575
   D10        3.13971   0.00000  -0.00182   0.00078  -0.00105   3.13866
   D11       -0.00762   0.00049   0.00849  -0.00045   0.00804   0.00043
   D12        3.13694   0.00015   0.00516  -0.00096   0.00421   3.14115
         Item               Value     Threshold  Converged?
 Maximum Force            0.001479     0.000450     NO 
 RMS     Force            0.000548     0.000300     NO 
 Maximum Displacement     0.013565     0.001800     NO 
 RMS     Displacement     0.003845     0.001200     NO 
 Predicted change in Energy=-2.780104D-05
 GradGradGradGradGradGradGradGradGradGradGradGradGradGradGradGradGradGrad

                          Input orientation:                          
 ---------------------------------------------------------------------
 Center     Atomic      Atomic             Coordinates (Angstroms)
 Number     Number       Type             X           Y           Z
 ---------------------------------------------------------------------
      1          6           0       -0.492827    0.295768    0.001656
      2          6           0        1.285375    1.596003    0.007150
      3          6           0        0.337204    2.582192   -0.005551
      4         16           0       -1.245366    1.874365   -0.013610
      5          1           0       -1.096125   -0.604585    0.002193
      6          1           0        2.356606    1.761764    0.014226
      7          1           0        0.477858    3.654491   -0.011273
      8          7           0        0.808984    0.302911    0.007194
 ---------------------------------------------------------------------
                    Distance matrix (angstroms):
                    1          2          3          4          5
     1  C    0.000000
     2  C    2.202871   0.000000
     3  C    2.432434   1.368122   0.000000
     4  S    1.748862   2.546089   1.733670   0.000000
     5  H    1.083792   3.242553   3.494287   2.483489   0.000000
     6  H    3.204461   1.084003   2.179789   3.603840   4.185822
     7  H    3.496200   2.211289   1.081500   2.477571   4.540632
     8  N    1.301842   1.378055   2.327630   2.586552   2.110216
                    6          7          8
     6  H    0.000000
     7  H    2.666976   0.000000
     8  N    2.126837   3.367948   0.000000
 Stoichiometry    C3H3NS
 Framework group  C1[X(C3H3NS)]
 Deg. of freedom    18
 Full point group                 C1      NOp   1
 Largest Abelian subgroup         C1      NOp   1
 Largest concise Abelian subgroup C1      NOp   1
                         Standard orientation:                         
 ---------------------------------------------------------------------
 Center     Atomic      Atomic             Coordinates (Angstroms)
 Number     Number       Type             X           Y           Z
 ---------------------------------------------------------------------
      1          6           0       -0.029282   -1.208647   -0.001576
      2          6           0       -1.292951    0.595731   -0.001129
      3          6           0       -0.077263    1.223314   -0.000166
      4         16           0        1.192369    0.042785    0.000314
      5          1           0        0.251288   -2.255492   -0.001784
      6          1           0       -2.253459    1.098214   -0.001476
      7          1           0        0.135572    2.283664    0.001078
      8          7           0       -1.259189   -0.781906    0.002056
 ---------------------------------------------------------------------
 Rotational constants (GHZ):      8.4617802      5.4232248      3.3050189
 Standard basis: 6-31+G(d) (6D, 7F)
 There are   105 symmetry adapted basis functions of A   symmetry.
 Integral buffers will be    131072 words long.
 Raffenetti 2 integral format.
 Two-electron integral symmetry is turned on.
   105 basis functions,   196 primitive gaussians,   105 cartesian basis functions
    22 alpha electrons       22 beta electrons
       nuclear repulsion energy       204.0582328620 Hartrees.
 NAtoms=    8 NActive=    8 NUniq=    8 SFac= 1.00D+00 NAtFMM=   50 NAOKFM=F Big=F
 One-electron integrals computed using PRISM.
 NBasis=   105 RedAO= T  NBF=   105
 NBsUse=   105 1.00D-06 NBFU=   105
 Initial guess read from the read-write file.
 B after Tr=     0.000000    0.000000    0.000000
         Rot=    1.000000    0.000000    0.000000    0.000000 Ang=   0.00 deg.
 Initial guess orbital symmetries:
       Occupied  (A) (A) (A) (A) (A) (A) (A) (A) (A) (A) (A) (A)
                 (A) (A) (A) (A) (A) (A) (A) (A) (A) (A)
       Virtual   (A) (A) (A) (A) (A) (A) (A) (A) (A) (A) (A) (A)
                 (A) (A) (A) (A) (A) (A) (A) (A) (A) (A) (A) (A)
                 (A) (A) (A) (A) (A) (A) (A) (A) (A) (A) (A) (A)
                 (A) (A) (A) (A) (A) (A) (A) (A) (A) (A) (A) (A)
                 (A) (A) (A) (A) (A) (A) (A) (A) (A) (A) (A) (A)
                 (A) (A) (A) (A) (A) (A) (A) (A) (A) (A) (A) (A)
                 (A) (A) (A) (A) (A) (A) (A) (A) (A) (A) (A)
 Requested convergence on RMS density matrix=1.00D-08 within 128 cycles.
 Requested convergence on MAX density matrix=1.00D-06.
 Requested convergence on             energy=1.00D-06.
 No special actions if energy rises.
 Keep R1 ints in memory in canonical form, NReq=16534073.
 SCF Done:  E(RB3LYP) =  -569.056315347     A.U. after   14 cycles
             Convg  =    0.3141D-08             -V/T =  2.0053
 Calling FoFJK, ICntrl=      2127 FMM=F ISym2X=0 I1Cent= 0 IOpClX= 0 NMat=1 NMatS=1 NMatT=0.
 ***** Axes restored to original set *****
 -------------------------------------------------------------------
 Center     Atomic                   Forces (Hartrees/Bohr)
 Number     Number              X              Y              Z
 -------------------------------------------------------------------
      1        6          -0.000249634    0.000415850   -0.000498740
      2        6          -0.000186700    0.000154005   -0.000486096
      3        6           0.000136028   -0.000221985    0.000029292
      4       16           0.000195138   -0.000216786    0.000204419
      5        1           0.000078629   -0.000161717   -0.000035139
      6        1          -0.000033649    0.000077777   -0.000021769
      7        1           0.000069896    0.000077464    0.000072275
      8        7          -0.000009709   -0.000124608    0.000735758
 -------------------------------------------------------------------
 Cartesian Forces:  Max     0.000735758 RMS     0.000257282

 GradGradGradGradGradGradGradGradGradGradGradGradGradGradGradGradGradGrad
 Berny optimization.
 Using GEDIIS/GDIIS optimizer.
 Internal  Forces:  Max     0.000318531 RMS     0.000131360
 Search for a local minimum.
 Step number   6 out of a maximum of   41
 All quantities printed in internal units (Hartrees-Bohrs-Radians)
 Mixed Optimization -- En-DIIS/RFO-DIIS
 Swaping is turned off.
 Update second derivatives using D2CorX and points    2    3    4    5    6
 DE= -2.35D-05 DEPred=-2.78D-05 R= 8.46D-01
 SS=  1.41D+00  RLast= 3.04D-02 DXNew= 1.2384D+00 9.1112D-02
 Trust test= 8.46D-01 RLast= 3.04D-02 DXMaxT set to 7.36D-01
 ITU=  1  1  0  1  1  0
     Eigenvalues ---    0.01510   0.01989   0.02521   0.03700   0.05723
     Eigenvalues ---    0.14174   0.14832   0.16096   0.22225   0.25362
     Eigenvalues ---    0.26825   0.29304   0.36334   0.37177   0.37235
     Eigenvalues ---    0.37718   0.49855   0.58608
 En-DIIS/RFO-DIIS IScMMF=        0 using points:     6    5
 RFO step:  Lambda=-2.08691747D-06.
 DidBck=F Rises=F RFO-DIIS coefs:    0.86805    0.13195
 Iteration  1 RMS(Cart)=  0.00246823 RMS(Int)=  0.00001078
 Iteration  2 RMS(Cart)=  0.00001016 RMS(Int)=  0.00000622
 Iteration  3 RMS(Cart)=  0.00000000 RMS(Int)=  0.00000622
 Variable       Old X    -DE/DX   Delta X   Delta X   Delta X     New X
                                  (DIIS)     (GDIIS)  (Total)
    R1        3.30487  -0.00024  -0.00006  -0.00050  -0.00056   3.30431
    R2        2.04807   0.00009   0.00003  -0.00010  -0.00008   2.04799
    R3        2.46012   0.00001   0.00004   0.00019   0.00023   2.46035
    R4        2.58538  -0.00029   0.00001  -0.00036  -0.00035   2.58502
    R5        2.04847  -0.00002   0.00005  -0.00033  -0.00028   2.04819
    R6        2.60415   0.00006  -0.00001   0.00115   0.00114   2.60529
    R7        3.27616  -0.00001   0.00009  -0.00011  -0.00002   3.27614
    R8        2.04374   0.00009  -0.00002   0.00005   0.00003   2.04377
    A1        2.10637   0.00017   0.00004   0.00107   0.00112   2.10750
    A2        2.01017  -0.00002  -0.00062   0.00118   0.00056   2.01074
    A3        2.16663  -0.00015   0.00056  -0.00225  -0.00168   2.16495
    A4        2.18305  -0.00011   0.00005  -0.00106  -0.00100   2.18205
    A5        2.02284   0.00004  -0.00002  -0.00004  -0.00007   2.02277
    A6        2.07729   0.00006  -0.00004   0.00110   0.00107   2.07836
    A7        1.91599  -0.00002  -0.00033   0.00059   0.00025   1.91624
    A8        2.24544  -0.00005   0.00023  -0.00088  -0.00065   2.24479
    A9        2.12175   0.00007   0.00010   0.00029   0.00040   2.12215
   A10        1.54649   0.00004   0.00047  -0.00054  -0.00008   1.54641
   A11        1.92926  -0.00004   0.00050  -0.00113  -0.00065   1.92861
    D1       -3.14143  -0.00001  -0.00156   0.00253   0.00096  -3.14046
    D2       -0.00384   0.00022   0.00165   0.00368   0.00533   0.00149
    D3        0.00602  -0.00032  -0.00171  -0.00792  -0.00963  -0.00361
    D4       -3.13974  -0.00008   0.00163  -0.00672  -0.00509   3.13836
    D5        3.14145   0.00006   0.00113  -0.00422  -0.00309   3.13836
    D6        0.00081   0.00002   0.00058  -0.00113  -0.00055   0.00026
    D7        0.00287  -0.00012   0.00038  -0.00671  -0.00633  -0.00346
    D8       -3.13777  -0.00015  -0.00018  -0.00361  -0.00379  -3.14156
    D9       -0.00575   0.00028   0.00085   0.00950   0.01035   0.00460
   D10        3.13866   0.00012   0.00014   0.00718   0.00731  -3.13721
   D11        0.00043  -0.00005  -0.00106   0.00175   0.00069   0.00112
   D12        3.14115  -0.00002  -0.00056  -0.00109  -0.00164   3.13950
         Item               Value     Threshold  Converged?
 Maximum Force            0.000319     0.000450     YES
 RMS     Force            0.000131     0.000300     YES
 Maximum Displacement     0.010746     0.001800     NO 
 RMS     Displacement     0.002469     0.001200     NO 
 Predicted change in Energy=-5.267239D-06
 GradGradGradGradGradGradGradGradGradGradGradGradGradGradGradGradGradGrad

                          Input orientation:                          
 ---------------------------------------------------------------------
 Center     Atomic      Atomic             Coordinates (Angstroms)
 Number     Number       Type             X           Y           Z
 ---------------------------------------------------------------------
      1          6           0       -0.493267    0.296067    0.000812
      2          6           0        1.285334    1.595932    0.006663
      3          6           0        0.337264    2.581976   -0.004630
      4         16           0       -1.245453    1.874511   -0.013481
      5          1           0       -1.095653   -0.604848   -0.000281
      6          1           0        2.356265    1.762745    0.011104
      7          1           0        0.478596    3.654198   -0.011081
      8          7           0        0.808624    0.302327    0.012881
 ---------------------------------------------------------------------
                    Distance matrix (angstroms):
                    1          2          3          4          5
     1  C    0.000000
     2  C    2.202976   0.000000
     3  C    2.432116   1.367935   0.000000
     4  S    1.748563   2.546152   1.733659   0.000000
     5  H    1.083752   3.242311   3.494154   2.483915   0.000000
     6  H    3.204853   1.083854   2.178934   3.603535   4.185852
     7  H    3.495955   2.210791   1.081516   2.477829   4.540688
     8  N    1.301962   1.378660   2.327935   2.586830   2.109363
                    6          7          8
     6  H    0.000000
     7  H    2.665282   0.000000
     8  N    2.127913   3.368164   0.000000
 Stoichiometry    C3H3NS
 Framework group  C1[X(C3H3NS)]
 Deg. of freedom    18
 Full point group                 C1      NOp   1
 Largest Abelian subgroup         C1      NOp   1
 Largest concise Abelian subgroup C1      NOp   1
                         Standard orientation:                         
 ---------------------------------------------------------------------
 Center     Atomic      Atomic             Coordinates (Angstroms)
 Number     Number       Type             X           Y           Z
 ---------------------------------------------------------------------
      1          6           0       -0.029031   -1.208430    0.000648
      2          6           0       -1.292953    0.595899    0.000835
      3          6           0       -0.077334    1.223206   -0.000847
      4         16           0        1.192399    0.042802    0.000020
      5          1           0        0.250367   -2.255546    0.002373
      6          1           0       -2.252745    1.099419    0.003608
      7          1           0        0.134985    2.283676    0.000453
      8          7           0       -1.259297   -0.782348   -0.001509
 ---------------------------------------------------------------------
 Rotational constants (GHZ):      8.4610234      5.4230841      3.3048494
 Standard basis: 6-31+G(d) (6D, 7F)
 There are   105 symmetry adapted basis functions of A   symmetry.
 Integral buffers will be    131072 words long.
 Raffenetti 2 integral format.
 Two-electron integral symmetry is turned on.
   105 basis functions,   196 primitive gaussians,   105 cartesian basis functions
    22 alpha electrons       22 beta electrons
       nuclear repulsion energy       204.0535654712 Hartrees.
 NAtoms=    8 NActive=    8 NUniq=    8 SFac= 1.00D+00 NAtFMM=   50 NAOKFM=F Big=F
 One-electron integrals computed using PRISM.
 NBasis=   105 RedAO= T  NBF=   105
 NBsUse=   105 1.00D-06 NBFU=   105
 Initial guess read from the read-write file.
 B after Tr=     0.000000    0.000000    0.000000
         Rot=    1.000000    0.000000    0.000000    0.000000 Ang=   0.00 deg.
 Initial guess orbital symmetries:
       Occupied  (A) (A) (A) (A) (A) (A) (A) (A) (A) (A) (A) (A)
                 (A) (A) (A) (A) (A) (A) (A) (A) (A) (A)
       Virtual   (A) (A) (A) (A) (A) (A) (A) (A) (A) (A) (A) (A)
                 (A) (A) (A) (A) (A) (A) (A) (A) (A) (A) (A) (A)
[...]
     3   6     0.03   0.08   0.00    -0.03  -0.04   0.00    -0.07   0.02   0.00
     4  16     0.01   0.01   0.00     0.00  -0.01   0.00     0.00   0.00   0.00
     5   1     0.25   0.02   0.00     0.42   0.01   0.00    -0.77  -0.17   0.00
     6   1    -0.20  -0.04   0.00     0.26   0.72   0.00     0.28   0.47   0.00
     7   1     0.91  -0.09   0.00    -0.44   0.03   0.00     0.24  -0.04   0.00
     8   7    -0.05  -0.14   0.00    -0.01  -0.07   0.00     0.02  -0.07   0.00
                    13                     14                     15
                     A                      A                      A
 Frequencies --  1365.5005              1448.6683              1536.4973
 Red. masses --     1.9959                 6.5836                 4.9149
 Frc consts  --     2.1927                 8.1406                 6.8364
 IR Inten    --     2.7413                29.9843                31.1063
  Atom  AN      X      Y      Z        X      Y      Z        X      Y      Z
     1   6     0.01   0.06   0.00     0.38  -0.14   0.00     0.28  -0.07   0.00
     2   6    -0.04   0.18   0.00    -0.29  -0.19   0.00     0.28   0.20   0.00
     3   6     0.15  -0.04   0.00     0.30   0.12   0.00    -0.23  -0.12   0.00
     4  16    -0.02   0.00   0.00     0.00   0.00   0.00     0.00   0.01   0.00
     5   1    -0.55  -0.08   0.00    -0.26  -0.34   0.00    -0.13  -0.21   0.00
     6   1    -0.37  -0.43   0.00    -0.10   0.27   0.00    -0.17  -0.72   0.00
     7   1    -0.52   0.10   0.00    -0.39   0.30   0.00     0.07  -0.22   0.00
     8   7     0.04  -0.15   0.00    -0.28   0.16   0.00    -0.27   0.07   0.00
                    16                     17                     18
                     A                      A                      A
 Frequencies --  3240.8273              3249.5161              3280.2656
 Red. masses --     1.0907                 1.0940                 1.0984
 Frc consts  --     6.7491                 6.8062                 6.9638
 IR Inten    --     4.6119                 0.0808                 1.1063
  Atom  AN      X      Y      Z        X      Y      Z        X      Y      Z
     1   6     0.00   0.01   0.00     0.02  -0.08   0.00     0.00   0.00   0.00
     2   6    -0.08   0.04   0.00    -0.01   0.01   0.00     0.02  -0.01   0.00
     3   6     0.00  -0.02   0.00     0.00   0.00   0.00    -0.02  -0.08   0.00
     4  16     0.00   0.00   0.00     0.00   0.00   0.00     0.00   0.00   0.00
     5   1     0.03  -0.11   0.00    -0.25   0.96   0.00     0.01  -0.04   0.00
     6   1     0.86  -0.44   0.00     0.08  -0.04   0.00    -0.21   0.10   0.00
     7   1     0.04   0.23   0.00     0.01   0.06   0.00     0.19   0.95   0.00
     8   7     0.00   0.00   0.00     0.00   0.00   0.00     0.00   0.00   0.00

 -------------------
 - Thermochemistry -
 -------------------
 Temperature   298.150 Kelvin.  Pressure   1.00000 Atm.
 Atom     1 has atomic number  6 and mass  12.00000
 Atom     2 has atomic number  6 and mass  12.00000
 Atom     3 has atomic number  6 and mass  12.00000
 Atom     4 has atomic number 16 and mass  31.97207
 Atom     5 has atomic number  1 and mass   1.00783
 Atom     6 has atomic number  1 and mass   1.00783
 Atom     7 has atomic number  1 and mass   1.00783
 Atom     8 has atomic number  7 and mass  14.00307
 Molecular mass:    84.99862 amu.
 Principal axes and moments of inertia in atomic units:
                           1         2         3
     Eigenvalues --   213.26071 332.69588 545.95659
           X            0.99662  -0.08213   0.00001
           Y            0.08213   0.99662  -0.00001
           Z           -0.00001   0.00001   1.00000
 This molecule is an asymmetric top.
 Rotational symmetry number  1.
 Rotational temperatures (Kelvin)      0.40614     0.26034     0.15865
 Rotational constants (GHZ):           8.46261     5.42460     3.30565
 Zero-point vibrational energy     145071.4 (Joules/Mol)
                                   34.67289 (Kcal/Mol)
 Warning -- explicit consideration of   3 degrees of freedom as
           vibrations may cause significant error
 Vibrational temperatures:    674.69   882.68   884.78  1043.38  1068.84
          (Kelvin)           1155.93  1243.26  1277.60  1296.30  1545.88
                             1670.85  1834.59  1964.65  2084.31  2210.67
                             4662.82  4675.32  4719.56
 
 Zero-point correction=                           0.055255 (Hartree/Particle)
 Thermal correction to Energy=                    0.059167
 Thermal correction to Enthalpy=                  0.060112
 Thermal correction to Gibbs Free Energy=         0.028102
 Sum of electronic and zero-point Energies=           -569.001064
 Sum of electronic and thermal Energies=              -568.997151
 Sum of electronic and thermal Enthalpies=            -568.996207
 Sum of electronic and thermal Free Energies=         -569.028217
 
                     E (Thermal)             CV                S
                      KCal/Mol        Cal/Mol-Kelvin    Cal/Mol-Kelvin
 Total                   37.128             13.996             67.371
 Electronic               0.000              0.000              0.000
 Translational            0.889              2.981             39.234
 Rotational               0.889              2.981             25.163
 Vibrational             35.351              8.035              2.974
 Vibration     1          0.826              1.319              0.741
 Vibration     2          0.973              1.003              0.427
 Vibration     3          0.974              1.000              0.425
                       Q            Log10(Q)             Ln(Q)
 Total Bot       0.118615D-12        -12.925862        -29.762896
 Total V=0       0.308685D+13         12.489515         28.758171
 Vib (Bot)       0.546589D-25        -25.262339        -58.168686
 Vib (Bot)    1  0.360020D+00         -0.443673         -1.021595
 Vib (Bot)    2  0.240008D+00         -0.619774         -1.427083
 Vib (Bot)    3  0.239074D+00         -0.621468         -1.430984
 Vib (V=0)       0.142245D+01          0.153037          0.352381
 Vib (V=0)    1  0.111613D+01          0.047714          0.109866
 Vib (V=0)    2  0.105462D+01          0.023096          0.053181
 Vib (V=0)    3  0.105422D+01          0.022930          0.052798
 Electronic      0.100000D+01          0.000000          0.000000
 Translational   0.308016D+08          7.488573         17.243077
 Rotational      0.704538D+05          4.847905         11.162713
 ***** Axes restored to original set *****
 -------------------------------------------------------------------
 Center     Atomic                   Forces (Hartrees/Bohr)
 Number     Number              X              Y              Z
 -------------------------------------------------------------------
      1        6          -0.000131687    0.000035803   -0.000010662
      2        6          -0.000022665    0.000004211    0.000025473
      3        6           0.000018486    0.000049713    0.000004994
      4       16           0.000049006   -0.000083062   -0.000010332
      5        1           0.000001746   -0.000023123    0.000011172
      6        1           0.000024565    0.000001059   -0.000015058
      7        1           0.000008408    0.000001204    0.000001484
      8        7           0.000052140    0.000014194   -0.000007072
 -------------------------------------------------------------------
 Cartesian Forces:  Max     0.000131687 RMS     0.000039105

 GradGradGradGradGradGradGradGradGradGradGradGradGradGradGradGradGradGrad
 Berny optimization.
 Internal  Forces:  Max     0.000065957 RMS     0.000024859
 Search for a local minimum.
 Step number   1 out of a maximum of    2
 All quantities printed in internal units (Hartrees-Bohrs-Radians)
 Second derivative matrix not updated -- analytic derivatives used.
 ITU=  0
     Eigenvalues ---    0.01516   0.02537   0.03258   0.04740   0.06101
     Eigenvalues ---    0.09342   0.10873   0.11636   0.16676   0.20718
     Eigenvalues ---    0.24502   0.30474   0.37078   0.37126   0.37783
     Eigenvalues ---    0.44728   0.47746   0.56762
 Angle between quadratic step and forces=  50.23 degrees.
 Linear search not attempted -- first point.
 Iteration  1 RMS(Cart)=  0.00013461 RMS(Int)=  0.00000002
 Iteration  2 RMS(Cart)=  0.00000002 RMS(Int)=  0.00000001
 Variable       Old X    -DE/DX   Delta X   Delta X   Delta X     New X
                                 (Linear)    (Quad)   (Total)
    R1        3.30387  -0.00006   0.00000  -0.00039  -0.00039   3.30348
    R2        2.04829   0.00002   0.00000   0.00004   0.00004   2.04833
    R3        2.46024   0.00007   0.00000   0.00019   0.00019   2.46043
    R4        2.58479   0.00000   0.00000   0.00002   0.00002   2.58482
    R5        2.04837   0.00002   0.00000   0.00007   0.00007   2.04844
    R6        2.60427   0.00002   0.00000  -0.00003  -0.00003   2.60424
    R7        3.27607   0.00003   0.00000   0.00009   0.00009   3.27616
    R8        2.04396   0.00000   0.00000   0.00000   0.00000   2.04396
    A1        2.10759   0.00004   0.00000   0.00025   0.00025   2.10784
    A2        2.01046  -0.00004   0.00000  -0.00008  -0.00008   2.01038
    A3        2.16513   0.00001   0.00000  -0.00016  -0.00016   2.16497
    A4        2.18227   0.00000   0.00000   0.00000   0.00000   2.18227
    A5        2.02299   0.00000   0.00000   0.00005   0.00005   2.02304
    A6        2.07793   0.00000   0.00000  -0.00005  -0.00005   2.07788
    A7        1.91594  -0.00003   0.00000  -0.00017  -0.00017   1.91577
    A8        2.24499   0.00001   0.00000   0.00006   0.00006   2.24505
    A9        2.12225   0.00002   0.00000   0.00011   0.00011   2.12237
   A10        1.54652   0.00005   0.00000   0.00018   0.00018   1.54670
   A11        1.92886   0.00002   0.00000   0.00003   0.00003   1.92889
    D1       -3.14126  -0.00001   0.00000  -0.00034  -0.00034   3.14159
    D2        0.00007  -0.00001   0.00000  -0.00007  -0.00007   0.00000
    D3       -0.00006   0.00000   0.00000   0.00006   0.00006   0.00000
    D4        3.14126   0.00001   0.00000   0.00033   0.00033  -3.14159
    D5       -3.14116  -0.00001   0.00000  -0.00043  -0.00043  -3.14159
    D6        0.00031  -0.00001   0.00000  -0.00031  -0.00031   0.00000
    D7        0.00004   0.00000   0.00000  -0.00004  -0.00004   0.00000
    D8        3.14151   0.00000   0.00000   0.00008   0.00008  -3.14159
    D9        0.00001   0.00000   0.00000  -0.00001  -0.00001   0.00000
   D10        3.14124   0.00001   0.00000   0.00035   0.00035  -3.14159
   D11       -0.00006   0.00000   0.00000   0.00006   0.00006   0.00000
   D12       -3.14154   0.00000   0.00000  -0.00005  -0.00005   3.14159
         Item               Value     Threshold  Converged?
 Maximum Force            0.000066     0.000450     YES
 RMS     Force            0.000025     0.000300     YES
 Maximum Displacement     0.000298     0.001800     YES
 RMS     Displacement     0.000135     0.001200     YES
 Predicted change in Energy=-4.502902D-08
 Optimization completed.
    -- Stationary point found.
                           ----------------------------
                           !   Optimized Parameters   !
                           ! (Angstroms and Degrees)  !
 --------------------------                            --------------------------
 ! Name  Definition              Value          Derivative Info.                !
 --------------------------------------------------------------------------------
 ! R1    R(1,4)                  1.7483         -DE/DX =   -0.0001              !
 ! R2    R(1,5)                  1.0839         -DE/DX =    0.0                 !
 ! R3    R(1,8)                  1.3019         -DE/DX =    0.0001              !
 ! R4    R(2,3)                  1.3678         -DE/DX =    0.0                 !
 ! R5    R(2,6)                  1.0839         -DE/DX =    0.0                 !
 ! R6    R(2,8)                  1.3781         -DE/DX =    0.0                 !
 ! R7    R(3,4)                  1.7336         -DE/DX =    0.0                 !
 ! R8    R(3,7)                  1.0816         -DE/DX =    0.0                 !
 ! A1    A(4,1,5)              120.7563         -DE/DX =    0.0                 !
 ! A2    A(4,1,8)              115.1911         -DE/DX =    0.0                 !
 ! A3    A(5,1,8)              124.0527         -DE/DX =    0.0                 !
 ! A4    A(3,2,6)              125.0347         -DE/DX =    0.0                 !
 ! A5    A(3,2,8)              115.9088         -DE/DX =    0.0                 !
 ! A6    A(6,2,8)              119.0565         -DE/DX =    0.0                 !
 ! A7    A(2,3,4)              109.7755         -DE/DX =    0.0                 !
 ! A8    A(2,3,7)              128.6284         -DE/DX =    0.0                 !
 ! A9    A(4,3,7)              121.5961         -DE/DX =    0.0                 !
 ! A10   A(1,4,3)               88.609          -DE/DX =    0.0001              !
 ! A11   A(1,8,2)              110.5156         -DE/DX =    0.0                 !
 ! D1    D(5,1,4,3)            180.0192         -DE/DX =    0.0                 !
 ! D2    D(8,1,4,3)              0.004          -DE/DX =    0.0                 !
 ! D3    D(4,1,8,2)             -0.0034         -DE/DX =    0.0                 !
 ! D4    D(5,1,8,2)           -180.0192         -DE/DX =    0.0                 !
 ! D5    D(6,2,3,4)           -179.9753         -DE/DX =    0.0                 !
 ! D6    D(6,2,3,7)              0.0176         -DE/DX =    0.0                 !
 ! D7    D(8,2,3,4)              0.0023         -DE/DX =    0.0                 !
 ! D8    D(8,2,3,7)           -180.0047         -DE/DX =    0.0                 !
 ! D9    D(3,2,8,1)              0.0006         -DE/DX =    0.0                 !
 ! D10   D(6,2,8,1)           -180.0203         -DE/DX =    0.0                 !
 ! D11   D(2,3,4,1)             -0.0034         -DE/DX =    0.0                 !
 ! D12   D(7,3,4,1)            180.0031         -DE/DX =    0.0                 !
 --------------------------------------------------------------------------------
 GradGradGradGradGradGradGradGradGradGradGradGradGradGradGradGradGradGrad

 1\1\GINC-PVBHARATAM\Freq\RB3LYP\6-31+G(d)\C3H3N1S1\BHARATAM\20-Aug-201
 4\0\\#N Geom=AllCheck Guess=TCheck SCRF=Check GenChk RB3LYP/6-31+G(d) 
 Freq\\Opt_thaizole\\0,1\C,-0.4931979825,0.2961404924,0.0008590524\C,1.
 2851012223,1.5959036929,0.0062851272\C,0.3372839962,2.5820125644,-0.00
 59005808\S,-1.2453171429,1.8743649756,-0.0131389539\H,-1.0955763319,-0
 .604965645,0.0012752804\H,2.3561734419,1.7623380926,0.0133061236\H,0.4
 785855714,3.6543485358,-0.0107695043\N,0.8086573055,0.3027661712,0.010
 0694555\\Version=EM64L-G09RevB.01\State=1-A\HF=-569.0563188\RMSD=2.712
 e-09\RMSF=3.911e-05\ZeroPoint=0.0552548\Thermal=0.0591675\Dipole=-0.32
 79225,0.563151,-0.0053839\DipoleDeriv=0.4772518,-0.4524609,0.0068106,-
 0.3816616,0.4635531,-0.0058699,0.0064614,-0.0063005,-0.1216172,0.15459
 46,0.0421052,0.0013384,0.0827907,0.1204227,-0.0003499,0.0012524,-0.000
 7034,-0.0557105,0.230101,-0.0312189,0.0037216,0.090204,-0.0963988,-0.0
 003312,0.0029965,-0.001134,-0.2741681,-0.1787415,0.2214811,-0.0036181,
 0.1621744,-0.1525496,0.0028347,-0.0032799,0.003236,0.1580316,0.0436403
 ,0.0033978,-0.0008541,-0.0374369,-0.0081177,0.0006548,-0.0006848,0.000
 886,0.1608316,-0.052115,-0.045998,-0.0013264,0.0089864,0.0776352,0.000
 565,-0.0017294,0.0001569,0.1674743,0.0672431,-0.0436367,-0.0006467,-0.
 018325,0.012526,0.0008616,-0.0007799,0.0006598,0.1932449,-0.7419743,0.
 3063304,-0.0054253,0.093268,-0.4170709,0.0016349,-0.0042363,0.0031991,
 -0.2280866\Polar=66.8236193,-2.3234591,63.2572199,0.229568,-0.1651462,
 36.2732454\PG=C01 [X(C3H3N1S1)]\NImag=0\\0.71475635,0.19408058,0.56935
 150,0.00333446,-0.00111791,0.10174698,-0.06329472,-0.03055912,-0.00033
 223,0.83232370,-0.08132849,-0.02298062,-0.00040688,-0.02292611,0.58421
 221,-0.00004762,-0.00005491,0.00691775,0.00519444,-0.00264133,0.134956
 00,-0.01903769,-0.02989267,-0.00003865,-0.25546360,0.13394583,-0.00217
 518,0.46831463,0.00505230,-0.05507492,0.00039912,0.16862341,-0.2455356
 8,0.00224820,-0.07087300,0.79854133,-0.00024025,0.00015188,0.01065768,
 -0.00235298,0.00199652,-0.05657412,0.00311566,-0.00442913,0.08562163,-
 0.04056649,0.01537852,-0.00008955,-0.06206244,0.04228725,-0.00072481,-
 0.14761837,-0.03923875,-0.00058984,0.31699450,0.03238669,-0.12450561,0
 .00068318,-0.01817788,-0.00785283,-0.00003636,-0.06246096,-0.06535061,
 -0.00026713,-0.01243679,0.23568300,-0.00018573,0.00057252,-0.04005737,
 -0.00039294,0.00038300,0.00765879,-0.00046098,-0.00010115,-0.03348631,
 0.00201641,-0.00115290,0.04189184,-0.13593912,-0.13389385,-0.00009211,
 -0.00482710,0.00020185,-0.00009451,-0.00236962,0.00457200,-0.00004640,
 0.00817939,0.01193792,0.00000431,0.15339096,-0.14086037,-0.26768536,0.
 00027257,0.00034278,0.00257318,0.00003033,0.00321323,-0.00282723,0.000
 04139,-0.00907126,-0.01354460,0.00000049,0.14613450,0.27334573,-0.0000
 6107,0.00031349,-0.02489969,-0.00009125,0.00002827,0.00802661,-0.00004
 202,0.00005361,0.00067246,0.00011751,0.00015569,-0.00138143,0.00018133
 ,-0.00028697,0.02071383,0.00054791,-0.00113916,-0.00001404,-0.34504598
 ,-0.03950011,-0.00208698,-0.01269026,-0.00467166,-0.00009730,-0.000640
 41,0.00116814,-0.00006171,-0.00020785,0.00009486,-0.00000874,0.3629557
 1,-0.00294028,-0.00631095,0.00003122,-0.03353131,-0.05871918,-0.000104
 77,0.02102896,0.00707795,0.00013598,0.00412700,-0.00104408,0.00007206,
 -0.00140369,0.00031483,-0.00000611,0.04684143,0.06438926,-0.00000430,0
 .00004609,0.00320721,-0.00213499,-0.00015093,-0.03302530,-0.00023038,-
 0.00005246,0.00408692,-0.00007463,0.00005008,0.00683646,0.00000018,0.0
 0000391,0.00092626,0.00224655,0.00011995,0.02361212,-0.00829762,-0.001
 64594,-0.00005691,0.01176692,0.01859814,-0.00001337,-0.05519825,-0.040
 59262,-0.00000920,-0.00176814,-0.02250558,0.00013305,0.00141842,-0.000
 94399,-0.00000008,0.00023928,-0.00079890,0.00002921,0.05286154,0.00221
 998,0.00001631,0.00002042,-0.00868815,-0.00855596,-0.00001871,-0.03906
 572,-0.35965203,0.00156966,0.00142311,-0.00143423,0.00000023,-0.000097
 24,0.00023997,0.00001047,0.00038963,0.00024106,-0.00001639,0.04264629,
 0.37164286,-0.00007583,-0.00000729,0.00089368,0.00013796,0.00017580,-0
 .00064675,-0.00001860,0.00155807,-0.02225233,0.00000135,-0.00016942,-0
 .00320630,-0.00000612,0.00000434,0.00225423,0.00002401,-0.00002503,-0.
 00326974,0.00000563,-0.00162815,0.01892784,-0.44816861,-0.01232837,-0.
 00271096,-0.11339678,-0.05127836,-0.00005198,0.02406317,-0.02287169,0.
 00022031,-0.07251804,0.07008847,-0.00105240,-0.01964509,0.00109024,-0.
 00009569,-0.00515840,-0.03332321,0.00016836,-0.00102214,0.00117210,-0.
 00006840,0.63584589,-0.00861039,-0.09281034,0.00011827,-0.05508362,-0.
 24314111,0.00057755,0.04410432,-0.07717880,0.00080084,-0.00246908,-0.0
 2195104,0.00022574,-0.02745149,0.00758349,-0.00026844,-0.00318313,-0.0
 0594889,-0.00000025,0.00524260,-0.00249799,0.00009168,0.04745081,0.435
 94468,-0.00271967,0.00009614,-0.05846624,-0.00002801,0.00061555,-0.067
 31298,-0.00014984,0.00032375,0.01127408,-0.00065645,0.00073686,0.02174
 431,0.00005331,-0.00006607,-0.00631227,-0.00000179,-0.00022330,-0.0023
 7394,-0.00008832,0.00006247,0.00729937,0.00359077,-0.00154539,0.094147
 66\\0.00013169,-0.00003580,0.00001066,0.00002267,-0.00000421,-0.000025
 47,-0.00001849,-0.00004971,-0.00000499,-0.00004901,0.00008306,0.000010
 33,-0.00000175,0.00002312,-0.00001117,-0.00002457,-0.00000106,0.000015
 06,-0.00000841,-0.00000120,-0.00000148,-0.00005214,-0.00001419,0.00000
 707\\\@


 GETTING A SIMPLE ANSWER FROM A PROFESSOR IS LIKE
 GETTING A THIMBLE OF WATER FROM A FIRE HYDRANT.
     -- PROF. LEN SHAPIRO, NDSU
 Job cpu time:  0 days  0 hours  1 minutes 31.3 seconds.
 File lengths (MBytes):  RWF=     16 Int=      0 D2E=      0 Chk=      2 Scr=      1
 Normal termination of Gaussian 09 at Wed Aug 20 22:16:36 2014.
