 Entering Gaussian System, Link 0=g09
 Input=TZ+1.gjf
 Output=TZ+1.log
 Initial command:
 /home/pvbharatam/guass/g09/l1.exe /home/pvbharatam/GAUSS_SCRDIR/Gau-624.inp -scrdir=/home/pvbharatam/GAUSS_SCRDIR/
 Entering Link 1 = /home/pvbharatam/guass/g09/l1.exe PID=       625.
  
 Copyright (c) 1988,1990,1992,1993,1995,1998,2003,2009,2010,
            Gaussian, Inc.  All Rights Reserved.
  
 This is part of the Gaussian(R) 09 program.  It is based on
 the Gaussian(R) 03 system (copyright 2003, Gaussian, Inc.),
 the Gaussian(R) 98 system (copyright 1998, Gaussian, Inc.),
 the Gaussian(R) 94 system (copyright 1995, Gaussian, Inc.),
 the Gaussian 92(TM) system (copyright 1992, Gaussian, Inc.),
 the Gaussian 90(TM) system (copyright 1990, Gaussian, Inc.),
 the Gaussian 88(TM) system (copyright 1988, Gaussian, Inc.),
 the Gaussian 86(TM) system (copyright 1986, Carnegie Mellon
 University), and the Gaussian 82(TM) system (copyright 1983,
 Carnegie Mellon University). Gaussian is a federally registered
 trademark of Gaussian, Inc.
  
 This software contains proprietary and confidential information,
 including trade secrets, belonging to Gaussian, Inc.
  
 This software is provided under written license and may be
 used, copied, transmitted, or stored only in accord with that
 written license.
  
 The following legend is applicable only to US Government
 contracts under FAR:
  
                    RESTRICTED RIGHTS LEGEND
  
 Use, reproduction and disclosure by the US Government is
 subject to restrictions as set forth in subparagraphs (a)
 and (c) of the Commercial Computer Software - Restricted
 Rights clause in FAR 52.227-19.
  
 Gaussian, Inc.
 340 Quinnipiac St., Bldg. 40, Wallingford CT 06492
  
  
 ---------------------------------------------------------------
 Warning -- This program may not be used in any manner that
 competes with the business of Gaussian, Inc. or will provide
 assistance to any competitor of Gaussian, Inc.  The licensee
 of this program is prohibited from giving any competitor of
 Gaussian, Inc. access to this program.  By using this program,
 the user acknowledges that Gaussian, Inc. is engaged in the
 business of creating and licensing software in the field of
 computational chemistry and represents and warrants to the
 licensee that it is not a competitor of Gaussian, Inc. and that
 it will not use this program in any manner prohibited above.
 ---------------------------------------------------------------
  

 Cite this work as:
 Gaussian 09, Revision B.01,
 M. J. Frisch, G. W. Trucks, H. B. Schlegel, G. E. Scuseria, 
 M. A. Robb, J. R. Cheeseman, G. Scalmani, V. Barone, B. Mennucci, 
 G. A. Petersson, H. Nakatsuji, M. Caricato, X. Li, H. P. Hratchian, 
 A. F. Izmaylov, J. Bloino, G. Zheng, J. L. Sonnenberg, M. Hada, 
 M. Ehara, K. Toyota, R. Fukuda, J. Hasegawa, M. Ishida, T. Nakajima, 
 Y. Honda, O. Kitao, H. Nakai, T. Vreven, J. A. Montgomery, Jr., 
 J. E. Peralta, F. Ogliaro, M. Bearpark, J. J. Heyd, E. Brothers, 
 K. N. Kudin, V. N. Staroverov, T. Keith, R. Kobayashi, J. Normand, 
 K. Raghavachari, A. Rendell, J. C. Burant, S. S. Iyengar, J. Tomasi, 
 M. Cossi, N. Rega, J. M. Millam, M. Klene, J. E. Knox, J. B. Cross, 
 V. Bakken, C. Adamo, J. Jaramillo, R. Gomperts, R. E. Stratmann, 
 O. Yazyev, A. J. Austin, R. Cammi, C. Pomelli, J. W. Ochterski, 
 R. L. Martin, K. Morokuma, V. G. Zakrzewski, G. A. Voth, 
 P. Salvador, J. J. Dannenberg, S. Dapprich, A. D. Daniels, 
 O. Farkas, J. B. Foresman, J. V. Ortiz, J. Cioslowski, 
 and D. J. Fox, Gaussian, Inc., Wallingford CT, 2010.
 
 ******************************************
 Gaussian 09:  EM64L-G09RevB.01 12-Aug-2010
                14-Mar-2001 
 ******************************************
 %nprocshared=4
 Will use up to    4 processors via shared memory.
 %mem=4GB
 %chk=TZ+1.chk
 -------------------------
 # b3lyp/6-31+g(d) pop=nbo
 -------------------------
 1/38=1/1;
 2/12=2,17=6,18=5,40=1/2;
 3/5=1,6=6,7=11,11=2,16=1,25=1,30=1,74=-5/1,2,3;
 4//1;
 5/5=2,38=5/2;
 6/7=2,8=2,9=2,10=2,28=1/1,7;
 99/5=1,9=1/99;
 ----
 TZ+1
 ----
 Symbolic Z-matrix:
 Charge =  1 Multiplicity = 2
 C                     0.02897  -1.20846   0.00072 
 C                     1.29248   0.59578   0.00034 
 C                     0.07718   1.2236    0.00003 
 S                    -1.19191   0.04267  -0.00013 
 H                     2.25275   1.09851   0.00042 
 H                    -0.13589   2.28405  -0.00011 
 N                     1.25897  -0.78221  -0.0007 
 H                    -0.25095  -2.25535   0.0001 
 
                          Input orientation:                          
 ---------------------------------------------------------------------
 Center     Atomic      Atomic             Coordinates (Angstroms)
 Number     Number       Type             X           Y           Z
 ---------------------------------------------------------------------
      1          6           0        0.028965   -1.208460    0.000719
      2          6           0        1.292481    0.595784    0.000343
      3          6           0        0.077181    1.223599    0.000030
      4         16           0       -1.191905    0.042668   -0.000128
      5          1           0        2.252746    1.098514    0.000422
      6          1           0       -0.135885    2.284053   -0.000105
      7          7           0        1.258973   -0.782207   -0.000702
      8          1           0       -0.250952   -2.255346    0.000096
 ---------------------------------------------------------------------
                    Distance matrix (angstroms):
                    1          2          3          4          5
     1  C    0.000000
     2  C    2.202673   0.000000
     3  C    2.432537   1.367884   0.000000
     4  S    1.748098   2.545213   1.733545   0.000000
     5  H    3.204268   1.083903   2.179158   3.602837   0.000000
     6  H    3.496401   2.211443   1.081647   2.477698   2.666657
     7  N    1.301773   1.378399   2.328066   2.585966   2.127134
     8  H    1.083662   3.242087   3.494385   2.483196   4.185317
                    6          7          8
     6  H    0.000000
     7  N    3.368617   0.000000
     8  H    4.540857   2.109505   0.000000
 Stoichiometry    C3H3NS(1+,2)
 Framework group  C1[X(C3H3NS)]
 Deg. of freedom    18
 Full point group                 C1      NOp   1
 Largest Abelian subgroup         C1      NOp   1
 Largest concise Abelian subgroup C1      NOp   1
                         Standard orientation:                         
 ---------------------------------------------------------------------
 Center     Atomic      Atomic             Coordinates (Angstroms)
 Number     Number       Type             X           Y           Z
 ---------------------------------------------------------------------
      1          6           0        0.028965   -1.208460    0.000719
      2          6           0        1.292481    0.595784    0.000343
      3          6           0        0.077181    1.223599    0.000030
      4         16           0       -1.191905    0.042668   -0.000128
      5          1           0        2.252746    1.098515    0.000422
      6          1           0       -0.135886    2.284053   -0.000105
      7          7           0        1.258973   -0.782207   -0.000702
      8          1           0       -0.250951   -2.255346    0.000096
 ---------------------------------------------------------------------
 Rotational constants (GHZ):      8.4601617      5.4267822      3.3060884
 Standard basis: 6-31+G(d) (6D, 7F)
 There are   105 symmetry adapted basis functions of A   symmetry.
 Integral buffers will be    131072 words long.
 Raffenetti 2 integral format.
 Two-electron integral symmetry is turned on.
   105 basis functions,   196 primitive gaussians,   105 cartesian basis functions
    22 alpha electrons       21 beta electrons
       nuclear repulsion energy       204.0847674214 Hartrees.
 NAtoms=    8 NActive=    8 NUniq=    8 SFac= 1.00D+00 NAtFMM=   50 NAOKFM=F Big=F
 One-electron integrals computed using PRISM.
 NBasis=   105 RedAO= T  NBF=   105
 NBsUse=   105 1.00D-06 NBFU=   105
 Harris functional with IExCor=  402 diagonalized for initial guess.
 ExpMin= 4.05D-02 ExpMax= 2.19D+04 ExpMxC= 3.30D+03 IAcc=2 IRadAn=         0 AccDes= 0.00D+00
 HarFok:  IExCor=  402 AccDes= 0.00D+00 IRadAn=         0 IDoV= 1
 ScaDFX=  1.000000  1.000000  1.000000  1.000000
 FoFCou: FMM=F IPFlag=           0 FMFlag=      100000 FMFlg1=           0
         NFxFlg=           0 DoJE=T BraDBF=F KetDBF=T FulRan=T
         Omega=  0.000000  0.000000  1.000000  0.000000  0.000000 ICntrl=     500 IOpCl=  0
         NMat0=    1 NMatS0=    1 NMatT0=    0 NMatD0=    1 NMtDS0=    0 NMtDT0=    0
         I1Cent=           4 NGrid=           0.
 Petite list used in FoFCou.
 Initial guess orbital symmetries:
 Alpha Orbitals:
       Occupied  (A) (A) (A) (A) (A) (A) (A) (A) (A) (A) (A) (A)
                 (A) (A) (A) (A) (A) (A) (A) (A) (A) (A)
       Virtual   (A) (A) (A) (A) (A) (A) (A) (A) (A) (A) (A) (A)
                 (A) (A) (A) (A) (A) (A) (A) (A) (A) (A) (A) (A)
                 (A) (A) (A) (A) (A) (A) (A) (A) (A) (A) (A) (A)
                 (A) (A) (A) (A) (A) (A) (A) (A) (A) (A) (A) (A)
                 (A) (A) (A) (A) (A) (A) (A) (A) (A) (A) (A) (A)
                 (A) (A) (A) (A) (A) (A) (A) (A) (A) (A) (A) (A)
                 (A) (A) (A) (A) (A) (A) (A) (A) (A) (A) (A)
 Beta  Orbitals:
       Occupied  (A) (A) (A) (A) (A) (A) (A) (A) (A) (A) (A) (A)
                 (A) (A) (A) (A) (A) (A) (A) (A) (A)
       Virtual   (A) (A) (A) (A) (A) (A) (A) (A) (A) (A) (A) (A)
                 (A) (A) (A) (A) (A) (A) (A) (A) (A) (A) (A) (A)
                 (A) (A) (A) (A) (A) (A) (A) (A) (A) (A) (A) (A)
                 (A) (A) (A) (A) (A) (A) (A) (A) (A) (A) (A) (A)
                 (A) (A) (A) (A) (A) (A) (A) (A) (A) (A) (A) (A)
                 (A) (A) (A) (A) (A) (A) (A) (A) (A) (A) (A) (A)
                 (A) (A) (A) (A) (A) (A) (A) (A) (A) (A) (A) (A)
 The electronic state of the initial guess is 2-A.
 Initial guess <Sx>= 0.0000 <Sy>= 0.0000 <Sz>= 0.5000 <S**2>= 0.7500 S= 0.5000
 Requested convergence on RMS density matrix=1.00D-08 within 128 cycles.
 Requested convergence on MAX density matrix=1.00D-06.
 Requested convergence on             energy=1.00D-06.
 No special actions if energy rises.
 Keep R1 and R2 ints in memory in canonical form, NReq=32021475.
 EnCoef did     4 forward-backward iterations
 EnCoef did     3 forward-backward iterations
 SCF Done:  E(UB3LYP) =  -568.707837136     A.U. after   21 cycles
             Convg  =    0.8557D-08             -V/T =  2.0049
 <Sx>= 0.0000 <Sy>= 0.0000 <Sz>= 0.5000 <S**2>= 0.7613 S= 0.5056
 <L.S>= 0.000000000000E+00
 Annihilation of the first spin contaminant:
 S**2 before annihilation     0.7613,   after     0.7501

 **********************************************************************

            Population analysis using the SCF density.

 **********************************************************************

 Orbital symmetries:
 Alpha Orbitals:
       Occupied  (A) (A) (A) (A) (A) (A) (A) (A) (A) (A) (A) (A)
                 (A) (A) (A) (A) (A) (A) (A) (A) (A) (A)
       Virtual   (A) (A) (A) (A) (A) (A) (A) (A) (A) (A) (A) (A)
                 (A) (A) (A) (A) (A) (A) (A) (A) (A) (A) (A) (A)
                 (A) (A) (A) (A) (A) (A) (A) (A) (A) (A) (A) (A)
                 (A) (A) (A) (A) (A) (A) (A) (A) (A) (A) (A) (A)
                 (A) (A) (A) (A) (A) (A) (A) (A) (A) (A) (A) (A)
                 (A) (A) (A) (A) (A) (A) (A) (A) (A) (A) (A) (A)
                 (A) (A) (A) (A) (A) (A) (A) (A) (A) (A) (A)
 Beta  Orbitals:
       Occupied  (A) (A) (A) (A) (A) (A) (A) (A) (A) (A) (A) (A)
                 (A) (A) (A) (A) (A) (A) (A) (A) (A)
       Virtual   (A) (A) (A) (A) (A) (A) (A) (A) (A) (A) (A) (A)
                 (A) (A) (A) (A) (A) (A) (A) (A) (A) (A) (A) (A)
                 (A) (A) (A) (A) (A) (A) (A) (A) (A) (A) (A) (A)
                 (A) (A) (A) (A) (A) (A) (A) (A) (A) (A) (A) (A)
                 (A) (A) (A) (A) (A) (A) (A) (A) (A) (A) (A) (A)
                 (A) (A) (A) (A) (A) (A) (A) (A) (A) (A) (A) (A)
                 (A) (A) (A) (A) (A) (A) (A) (A) (A) (A) (A) (A)
 The electronic state is 2-A.
 Alpha  occ. eigenvalues --  -89.17879 -14.58811 -10.52265 -10.51283 -10.51066
 Alpha  occ. eigenvalues --   -8.23820  -6.20167  -6.19770  -6.19679  -1.23040
 Alpha  occ. eigenvalues --   -1.06326  -1.01732  -0.85496  -0.82868  -0.76579
 Alpha  occ. eigenvalues --   -0.68306  -0.67621  -0.66937  -0.62023  -0.54099
 Alpha  occ. eigenvalues --   -0.52863  -0.51393
 Alpha virt. eigenvalues --   -0.29401  -0.22160  -0.21744  -0.15664  -0.14706
 Alpha virt. eigenvalues --   -0.12663  -0.11334  -0.10946  -0.10204  -0.08732
 Alpha virt. eigenvalues --   -0.06260  -0.05973  -0.05361  -0.04013  -0.03152
 Alpha virt. eigenvalues --   -0.02046  -0.00166   0.00215   0.01099   0.01758
 Alpha virt. eigenvalues --    0.04582   0.05096   0.06043   0.06592   0.08342
 Alpha virt. eigenvalues --    0.09362   0.12987   0.13451   0.15516   0.22084
 Alpha virt. eigenvalues --    0.27314   0.29313   0.30263   0.33888   0.35808
 Alpha virt. eigenvalues --    0.37309   0.39497   0.43371   0.46579   0.55706
 Alpha virt. eigenvalues --    0.56453   0.57393   0.58486   0.66563   0.68914
 Alpha virt. eigenvalues --    0.72675   0.75714   0.76695   0.77432   0.79992
 Alpha virt. eigenvalues --    0.82109   0.82806   0.85621   0.90341   0.92285
 Alpha virt. eigenvalues --    0.97741   1.07675   1.15190   1.16359   1.24563
 Alpha virt. eigenvalues --    1.27100   1.42931   1.50898   1.56771   1.63998
 Alpha virt. eigenvalues --    1.73707   1.78967   1.94800   1.96840   2.03562
 Alpha virt. eigenvalues --    2.04500   2.10143   2.23941   2.24846   2.40673
 Alpha virt. eigenvalues --    2.42119   2.69336   2.74187   3.68528   3.87920
 Alpha virt. eigenvalues --    3.92058   4.05454   4.10854
  Beta  occ. eigenvalues --  -89.17848 -14.59007 -10.51713 -10.50757 -10.50515
  Beta  occ. eigenvalues --   -8.23788  -6.20168  -6.19772  -6.19535  -1.22354
  Beta  occ. eigenvalues --   -1.05676  -0.99842  -0.84631  -0.81968  -0.76156
  Beta  occ. eigenvalues --   -0.67961  -0.66520  -0.64518  -0.61614  -0.52810
  Beta  occ. eigenvalues --   -0.51480
  Beta virt. eigenvalues --   -0.43568  -0.25788  -0.21679  -0.19077  -0.15440
  Beta virt. eigenvalues --   -0.14354  -0.12506  -0.11107  -0.10744  -0.09924
  Beta virt. eigenvalues --   -0.08665  -0.05843  -0.05829  -0.05064  -0.03846
  Beta virt. eigenvalues --   -0.02945  -0.01770   0.00193   0.00314   0.01229
  Beta virt. eigenvalues --    0.02025   0.04792   0.05332   0.05949   0.07403
  Beta virt. eigenvalues --    0.08500   0.09398   0.13171   0.13591   0.15859
  Beta virt. eigenvalues --    0.22550   0.27633   0.29561   0.30741   0.34015
  Beta virt. eigenvalues --    0.36158   0.39285   0.41466   0.43779   0.48844
  Beta virt. eigenvalues --    0.56075   0.57615   0.58591   0.59044   0.67299
  Beta virt. eigenvalues --    0.69379   0.72956   0.76016   0.76956   0.77057
  Beta virt. eigenvalues --    0.80203   0.82987   0.83103   0.85717   0.91063
  Beta virt. eigenvalues --    0.92945   0.98374   1.09931   1.15458   1.17847
  Beta virt. eigenvalues --    1.26378   1.27243   1.45459   1.51475   1.59109
  Beta virt. eigenvalues --    1.66223   1.74161   1.79593   1.96545   1.99235
  Beta virt. eigenvalues --    2.05345   2.06529   2.11369   2.24399   2.26421
  Beta virt. eigenvalues --    2.41112   2.43211   2.69539   2.74497   3.68804
  Beta virt. eigenvalues --    3.87778   3.93422   4.06763   4.12265
          Condensed to atoms (all electrons):
              1          2          3          4          5          6
     1  C    5.500251   0.106682  -0.151339   0.065322   0.022587   0.001024
     2  C    0.106682   5.197156   0.215982  -0.066195   0.376796   0.009497
     3  C   -0.151339   0.215982   5.393084   0.342327  -0.049772   0.308534
     4  S    0.065322  -0.066195   0.342327  15.294142  -0.002310  -0.004734
     5  H    0.022587   0.376796  -0.049772  -0.002310   0.413833  -0.000332
     6  H    0.001024   0.009497   0.308534  -0.004734  -0.000332   0.358539
     7  N    0.162830   0.277070   0.010641   0.015265  -0.058682   0.002136
     8  H    0.390463   0.003480   0.003652  -0.051556   0.000027  -0.000021
              7          8
     1  C    0.162830   0.390463
     2  C    0.277070   0.003480
     3  C    0.010641   0.003652
     4  S    0.015265  -0.051556
     5  H   -0.058682   0.000027
     6  H    0.002136  -0.000021
     7  N    6.704547  -0.058100
     8  H   -0.058100   0.395901
 Mulliken atomic charges:
              1
     1  C   -0.097820
     2  C   -0.120467
     3  C   -0.073109
     4  S    0.407739
     5  H    0.297852
     6  H    0.325356
     7  N   -0.055706
     8  H    0.316154
 Sum of Mulliken atomic charges =   1.00000
 Mulliken charges with hydrogens summed into heavy atoms:
              1
     1  C    0.218334
     2  C    0.177385
     3  C    0.252248
     4  S    0.407739
     7  N   -0.055706
 Sum of Mulliken charges with hydrogens summed into heavy atoms =   1.00000
          Atomic-Atomic Spin Densities.
              1          2          3          4          5          6
     1  C    0.395482  -0.020338  -0.018804   0.030078  -0.000521   0.000406
     2  C   -0.020338   0.350422   0.066250  -0.014967  -0.001866  -0.003298
     3  C   -0.018804   0.066250   0.386028  -0.057741  -0.001093   0.000706
     4  S    0.030078  -0.014967  -0.057741   0.085706   0.000146  -0.001647
     5  H   -0.000521  -0.001866  -0.001093   0.000146  -0.016974   0.000074
     6  H    0.000406  -0.003298   0.000706  -0.001647   0.000074  -0.014127
     7  N    0.011428  -0.015334  -0.002513  -0.000818   0.001661  -0.000126
     8  H   -0.002849  -0.001320   0.000909  -0.000385   0.000003   0.000003
              7          8
     1  C    0.011428  -0.002849
     2  C   -0.015334  -0.001320
     3  C   -0.002513   0.000909
     4  S   -0.000818  -0.000385
     5  H    0.001661   0.000003
     6  H   -0.000126   0.000003
     7  N   -0.107794   0.000707
     8  H    0.000707  -0.016248
 Mulliken atomic spin densities:
              1
     1  C    0.394883
     2  C    0.359548
     3  C    0.373742
     4  S    0.040374
     5  H   -0.018570
     6  H   -0.018009
     7  N   -0.112789
     8  H   -0.019180
 Sum of Mulliken atomic spin densities =   1.00000
 Electronic spatial extent (au):  <R**2>=            364.5301
 Charge=              1.0000 electrons
 Dipole moment (field-independent basis, Debye):
    X=             -0.4899    Y=              1.7773    Z=              0.0015  Tot=              1.8435
 Quadrupole moment (field-independent basis, Debye-Ang):
   XX=            -28.3256   YY=            -21.2232   ZZ=            -33.7192
   XY=              5.2142   XZ=              0.0041   YZ=             -0.0023
 Traceless Quadrupole moment (field-independent basis, Debye-Ang):
   XX=             -0.5696   YY=              6.5328   ZZ=             -5.9632
   XY=              5.2142   XZ=              0.0041   YZ=             -0.0023
 Octapole moment (field-independent basis, Debye-Ang**2):
  XXX=              1.4725  YYY=              2.1147  ZZZ=             -0.0013  XYY=             -3.9412
  XXY=              9.5943  XXZ=              0.0014  XZZ=             -0.6275  YZZ=             -0.2220
  YYZ=              0.0001  XYZ=              0.0006
 Hexadecapole moment (field-independent basis, Debye-Ang**3):
 XXXX=           -227.9190 YYYY=           -128.6649 ZZZZ=            -35.1940 XXXY=             23.1943
 XXXZ=              0.0149 YYYX=              8.2087 YYYZ=             -0.0017 ZZZX=              0.0025
 ZZZY=             -0.0010 XXYY=            -69.8974 XXZZ=            -49.0398 YYZZ=            -38.5804
 XXYZ=             -0.0024 YYXZ=              0.0052 ZZXY=              1.0531
 N-N= 2.040847674214D+02 E-N=-2.601211569816D+03  KE= 8.482256837428D+02
                          Isotropic Fermi Contact Couplings
        Atom                 a.u.       MegaHertz       Gauss      10(-4) cm-1
     1  C(13)              0.04335      48.73116      17.38849      16.25496
     2  C(13)              0.03390      38.11035      13.59872      12.71224
     3  C(13)              0.02938      33.03125      11.78637      11.01804
     4  S(33)              0.00925       3.17781       1.13392       1.06000
     5  H(1)              -0.00672     -30.05032     -10.72270     -10.02371
     6  H(1)              -0.00615     -27.47467      -9.80365      -9.16456
     7  N(14)             -0.01346      -4.34790      -1.55144      -1.45030
     8  H(1)              -0.00668     -29.84851     -10.65069      -9.95639
 --------------------------------------------------------
       Center         ----  Spin Dipole Couplings  ----
                      3XX-RR        3YY-RR        3ZZ-RR
 --------------------------------------------------------
     1   Atom       -0.216187     -0.198949      0.415136
     2   Atom       -0.208233     -0.227740      0.435974
     3   Atom       -0.206029     -0.214720      0.420749
     4   Atom       -0.194709     -0.202249      0.396958
     5   Atom        0.030381     -0.022145     -0.008236
     6   Atom       -0.021787      0.030292     -0.008505
     7   Atom        0.078978      0.081419     -0.160397
     8   Atom       -0.024505      0.030230     -0.005725
 --------------------------------------------------------
                        XY            XZ            YZ
 --------------------------------------------------------
     1   Atom       -0.001892      0.000398      0.000243
     2   Atom       -0.004652     -0.000101     -0.000606
     3   Atom       -0.007026     -0.000356      0.000155
     4   Atom        0.009853     -0.000336      0.000568
     5   Atom        0.020745      0.000014     -0.000012
     6   Atom       -0.019488     -0.000004     -0.000026
     7   Atom        0.004499     -0.000176     -0.000014
     8   Atom        0.012245      0.000014      0.000001
 --------------------------------------------------------


 ---------------------------------------------------------------------------------
              Anisotropic Spin Dipole Couplings in Principal Axis System
 ---------------------------------------------------------------------------------

       Atom             a.u.   MegaHertz   Gauss  10(-4) cm-1        Axes

              Baa    -0.2164   -29.038   -10.361    -9.686  0.9942  0.1078 -0.0007
     1 C(13)  Bbb    -0.1987   -26.670    -9.516    -8.896 -0.1078  0.9942 -0.0003
              Bcc     0.4151    55.707    19.878    18.582  0.0006  0.0004  1.0000
 
              Baa    -0.2288   -30.702   -10.955   -10.241  0.2207  0.9753  0.0009
     2 C(13)  Bbb    -0.2072   -27.802    -9.920    -9.274  0.9753 -0.2207 -0.0001
              Bcc     0.4360    58.504    20.876    19.515 -0.0002 -0.0009  1.0000
 
              Baa    -0.2186   -29.339   -10.469    -9.786  0.4868  0.8735  0.0001
     3 C(13)  Bbb    -0.2021   -27.122    -9.678    -9.047  0.8735 -0.4868  0.0006
              Bcc     0.4207    56.460    20.147    18.833 -0.0006  0.0002  1.0000
 
              Baa    -0.2090    -8.570    -3.058    -2.859 -0.5668  0.8238 -0.0011
     4 S(33)  Bbb    -0.1879    -7.705    -2.749    -2.570  0.8238  0.5668 -0.0001
              Bcc     0.3970    16.275     5.807     5.429 -0.0006  0.0009  1.0000
 
              Baa    -0.0293   -15.660    -5.588    -5.223 -0.3281  0.9446  0.0007
     5 H(1)   Bbb    -0.0082    -4.394    -1.568    -1.466  0.0000 -0.0008  1.0000
              Bcc     0.0376    20.054     7.156     6.689  0.9446  0.3281  0.0002
 
              Baa    -0.0283   -15.085    -5.383    -5.032  0.9488  0.3157  0.0006
     6 H(1)   Bbb    -0.0085    -4.538    -1.619    -1.514 -0.0007  0.0003  1.0000
              Bcc     0.0368    19.623     7.002     6.545 -0.3157  0.9488 -0.0005
 
              Baa    -0.1604    -6.186    -2.207    -2.063  0.0007  0.0000  1.0000
     7 N(14)  Bbb     0.0755     2.913     1.040     0.972  0.7943 -0.6075 -0.0006
              Bcc     0.0849     3.273     1.168     1.092  0.6075  0.7943 -0.0005
 
              Baa    -0.0271   -14.470    -5.163    -4.827  0.9780 -0.2088 -0.0006
     8 H(1)   Bbb    -0.0057    -3.055    -1.090    -1.019  0.0006 -0.0002  1.0000
              Bcc     0.0328    17.524     6.253     5.845  0.2088  0.9780  0.0001
 

 ---------------------------------------------------------------------------------

 ******************************Gaussian NBO Version 3.1******************************
             N A T U R A L   A T O M I C   O R B I T A L   A N D
          N A T U R A L   B O N D   O R B I T A L   A N A L Y S I S
 ******************************Gaussian NBO Version 3.1******************************
       /RESON  / : Allow strongly delocalized NBO set

 Analyzing the SCF density

 Job title: TZ+1                                                            

 Storage needed:     33657 in NPA,     44502 in NBO ( 536870528 available)


 NATURAL POPULATIONS:  Natural atomic orbital occupancies 
                                                          
   NAO  Atom  No  lang   Type(AO)    Occupancy
 --------------------------------------------
     1    C    1  S      Cor( 1S)     1.99940
     2    C    1  S      Val( 2S)     1.08067
     3    C    1  S      Ryd( 3S)     0.00317
     4    C    1  S      Ryd( 4S)     0.00051
     5    C    1  S      Ryd( 5S)     0.00006
     6    C    1  px     Val( 2p)     0.91409
     7    C    1  px     Ryd( 3p)     0.01138
     8    C    1  px     Ryd( 4p)     0.00058
     9    C    1  py     Val( 2p)     1.18653
    10    C    1  py     Ryd( 3p)     0.00458
    11    C    1  py     Ryd( 4p)     0.00048
    12    C    1  pz     Val( 2p)     0.77132
    13    C    1  pz     Ryd( 3p)     0.00091
    14    C    1  pz     Ryd( 4p)     0.00027
    15    C    1  dxy    Ryd( 3d)     0.00222
    16    C    1  dxz    Ryd( 3d)     0.00114
    17    C    1  dyz    Ryd( 3d)     0.00078
    18    C    1  dx2y2  Ryd( 3d)     0.00142
    19    C    1  dz2    Ryd( 3d)     0.00080

    20    C    2  S      Cor( 1S)     1.99913
    21    C    2  S      Val( 2S)     1.00385
    22    C    2  S      Ryd( 3S)     0.00187
    23    C    2  S      Ryd( 4S)     0.00036
    24    C    2  S      Ryd( 5S)     0.00008
    25    C    2  px     Val( 2p)     1.17563
    26    C    2  px     Ryd( 3p)     0.00719
    27    C    2  px     Ryd( 4p)     0.00049
    28    C    2  py     Val( 2p)     0.92129
    29    C    2  py     Ryd( 3p)     0.00866
    30    C    2  py     Ryd( 4p)     0.00041
    31    C    2  pz     Val( 2p)     0.73136
    32    C    2  pz     Ryd( 3p)     0.00064
    33    C    2  pz     Ryd( 4p)     0.00022
    34    C    2  dxy    Ryd( 3d)     0.00172
    35    C    2  dxz    Ryd( 3d)     0.00070
    36    C    2  dyz    Ryd( 3d)     0.00088
    37    C    2  dx2y2  Ryd( 3d)     0.00101
    38    C    2  dz2    Ryd( 3d)     0.00046

    39    C    3  S      Cor( 1S)     1.99916
    40    C    3  S      Val( 2S)     1.12752
    41    C    3  S      Ryd( 3S)     0.00143
    42    C    3  S      Ryd( 4S)     0.00045
    43    C    3  S      Ryd( 5S)     0.00003
    44    C    3  px     Val( 2p)     1.04491
    45    C    3  px     Ryd( 3p)     0.00573
    46    C    3  px     Ryd( 4p)     0.00016
    47    C    3  py     Val( 2p)     1.23770
    48    C    3  py     Ryd( 3p)     0.00344
    49    C    3  py     Ryd( 4p)     0.00018
    50    C    3  pz     Val( 2p)     0.84953
    51    C    3  pz     Ryd( 3p)     0.00110
    52    C    3  pz     Ryd( 4p)     0.00010
    53    C    3  dxy    Ryd( 3d)     0.00146
    54    C    3  dxz    Ryd( 3d)     0.00078
    55    C    3  dyz    Ryd( 3d)     0.00094
    56    C    3  dx2y2  Ryd( 3d)     0.00092
    57    C    3  dz2    Ryd( 3d)     0.00087

    58    S    4  S      Cor( 1S)     2.00000
    59    S    4  S      Cor( 2S)     1.99942
    60    S    4  S      Val( 3S)     1.68801
    61    S    4  S      Ryd( 4S)     0.00467
    62    S    4  S      Ryd( 5S)     0.00036
    63    S    4  S      Ryd( 6S)     0.00002
    64    S    4  px     Cor( 2p)     1.99985
    65    S    4  px     Val( 3p)     1.29799
    66    S    4  px     Ryd( 4p)     0.00127
    67    S    4  px     Ryd( 5p)     0.00012
    68    S    4  py     Cor( 2p)     1.99987
    69    S    4  py     Val( 3p)     0.89849
    70    S    4  py     Ryd( 4p)     0.00543
    71    S    4  py     Ryd( 5p)     0.00013
    72    S    4  pz     Cor( 2p)     1.99991
    73    S    4  pz     Val( 3p)     1.46023
    74    S    4  pz     Ryd( 4p)     0.00293
    75    S    4  pz     Ryd( 5p)     0.00000
    76    S    4  dxy    Ryd( 3d)     0.01099
    77    S    4  dxz    Ryd( 3d)     0.00439
    78    S    4  dyz    Ryd( 3d)     0.00265
    79    S    4  dx2y2  Ryd( 3d)     0.00265
    80    S    4  dz2    Ryd( 3d)     0.00322

    81    H    5  S      Val( 1S)     0.70089
    82    H    5  S      Ryd( 2S)     0.00038

    83    H    6  S      Val( 1S)     0.67825
    84    H    6  S      Ryd( 2S)     0.00065

    85    N    7  S      Cor( 1S)     1.99944
    86    N    7  S      Val( 2S)     1.42035
    87    N    7  S      Ryd( 3S)     0.00200
    88    N    7  S      Ryd( 4S)     0.00023
    89    N    7  S      Ryd( 5S)     0.00002
    90    N    7  px     Val( 2p)     1.49235
    91    N    7  px     Ryd( 3p)     0.00561
    92    N    7  px     Ryd( 4p)     0.00018
    93    N    7  py     Val( 2p)     1.32178
    94    N    7  py     Ryd( 3p)     0.00584
    95    N    7  py     Ryd( 4p)     0.00021
    96    N    7  pz     Val( 2p)     1.16451
    97    N    7  pz     Ryd( 3p)     0.00057
    98    N    7  pz     Ryd( 4p)     0.00003
    99    N    7  dxy    Ryd( 3d)     0.00378
   100    N    7  dxz    Ryd( 3d)     0.00303
   101    N    7  dyz    Ryd( 3d)     0.00108
   102    N    7  dx2y2  Ryd( 3d)     0.00405
   103    N    7  dz2    Ryd( 3d)     0.00321

   104    H    8  S      Val( 1S)     0.69584
   105    H    8  S      Ryd( 2S)     0.00044


 Summary of Natural Population Analysis:                  
                                                          
                                       Natural Population 
                Natural  -----------------------------------------------
    Atom  No    Charge         Core      Valence    Rydberg      Total
 -----------------------------------------------------------------------
      C    1    0.01968      1.99940     3.95261    0.02831     5.98032
      C    2    0.14407      1.99913     3.83213    0.02468     5.85593
      C    3   -0.27642      1.99916     4.25966    0.01760     6.27642
      S    4    0.61738      9.99905     5.34473    0.03884    15.38262
      H    5    0.29873      0.00000     0.70089    0.00038     0.70127
      H    6    0.32111      0.00000     0.67825    0.00065     0.67889
      N    7   -0.42827      1.99944     5.39899    0.02984     7.42827
      H    8    0.30372      0.00000     0.69584    0.00044     0.69628
 =======================================================================
   * Total *    1.00000     17.99619    24.86308    0.14073    43.00000

                                 Natural Population      
 --------------------------------------------------------
   Core                      17.99619 ( 99.9788% of  18)
   Valence                   24.86308 ( 99.4523% of  25)
   Natural Minimal Basis     42.85927 ( 99.6727% of  43)
   Natural Rydberg Basis      0.14073 (  0.3273% of  43)
 --------------------------------------------------------

    Atom  No          Natural Electron Configuration
 ----------------------------------------------------------------------------
      C    1      [core]2S( 1.08)2p( 2.87)3p( 0.02)3d( 0.01)
      C    2      [core]2S( 1.00)2p( 2.83)3p( 0.02)
      C    3      [core]2S( 1.13)2p( 3.13)3p( 0.01)
      S    4      [core]3S( 1.69)3p( 3.66)3d( 0.02)4p( 0.01)
      H    5            1S( 0.70)
      H    6            1S( 0.68)
      N    7      [core]2S( 1.42)2p( 3.98)3p( 0.01)3d( 0.02)
      H    8            1S( 0.70)


 ***************************************************
 *******         Alpha spin orbitals         *******
 ***************************************************


 NATURAL POPULATIONS:  Natural atomic orbital occupancies 
                                                          
   NAO  Atom  No  lang   Type(AO)    Occupancy      Energy
 ----------------------------------------------------------
     1    C    1  S      Cor( 1S)     0.99970     -10.40764
     2    C    1  S      Val( 2S)     0.54843      -0.56951
     3    C    1  S      Ryd( 4S)     0.00161       0.71001
     4    C    1  S      Ryd( 3S)     0.00026       0.24358
     5    C    1  S      Ryd( 5S)     0.00003       3.76353
     6    C    1  px     Val( 2p)     0.46023      -0.33030
     7    C    1  px     Ryd( 4p)     0.00566       0.35574
     8    C    1  px     Ryd( 3p)     0.00029       0.16325
     9    C    1  py     Val( 2p)     0.59678      -0.38022
    10    C    1  py     Ryd( 4p)     0.00236       0.69685
    11    C    1  py     Ryd( 3p)     0.00024       0.17678
    12    C    1  pz     Val( 2p)     0.55239      -0.42975
    13    C    1  pz     Ryd( 4p)     0.00078       0.29634
    14    C    1  pz     Ryd( 3p)     0.00016       0.09020
    15    C    1  dxy    Ryd( 3d)     0.00111       2.09483
    16    C    1  dxz    Ryd( 3d)     0.00059       1.78765
    17    C    1  dyz    Ryd( 3d)     0.00045       1.46576
    18    C    1  dx2y2  Ryd( 3d)     0.00071       2.11229
    19    C    1  dz2    Ryd( 3d)     0.00026       1.89139

    20    C    2  S      Cor( 1S)     0.99957     -10.37405
    21    C    2  S      Val( 2S)     0.50869      -0.50200
    22    C    2  S      Ryd( 4S)     0.00094       0.62367
    23    C    2  S      Ryd( 3S)     0.00018       0.57550
    24    C    2  S      Ryd( 5S)     0.00004       3.53438
    25    C    2  px     Val( 2p)     0.58845      -0.33598
    26    C    2  px     Ryd( 4p)     0.00364       0.65833
    27    C    2  px     Ryd( 3p)     0.00024       0.17507
    28    C    2  py     Val( 2p)     0.46377      -0.29317
    29    C    2  py     Ryd( 4p)     0.00434       0.46732
    30    C    2  py     Ryd( 3p)     0.00020       0.16754
    31    C    2  pz     Val( 2p)     0.53363      -0.41020
    32    C    2  pz     Ryd( 4p)     0.00046       0.32837
    33    C    2  pz     Ryd( 3p)     0.00010       0.07077
    34    C    2  dxy    Ryd( 3d)     0.00086       2.18168
    35    C    2  dxz    Ryd( 3d)     0.00054       1.55210
    36    C    2  dyz    Ryd( 3d)     0.00048       1.76841
    37    C    2  dx2y2  Ryd( 3d)     0.00050       2.21181
    38    C    2  dz2    Ryd( 3d)     0.00012       2.04266

    39    C    3  S      Cor( 1S)     0.99959     -10.38998
    40    C    3  S      Val( 2S)     0.57022      -0.59832
    41    C    3  S      Ryd( 4S)     0.00071       0.66242
    42    C    3  S      Ryd( 3S)     0.00023       0.29312
    43    C    3  S      Ryd( 5S)     0.00002       3.89238
    44    C    3  px     Val( 2p)     0.52297      -0.38829
    45    C    3  px     Ryd( 4p)     0.00287       0.34201
    46    C    3  px     Ryd( 3p)     0.00008       0.15890
    47    C    3  py     Val( 2p)     0.62178      -0.39001
    48    C    3  py     Ryd( 4p)     0.00175       0.72893
    49    C    3  py     Ryd( 3p)     0.00009       0.17953
    50    C    3  pz     Val( 2p)     0.58694      -0.44352
    51    C    3  pz     Ryd( 4p)     0.00039       0.29739
    52    C    3  pz     Ryd( 3p)     0.00008       0.10597
    53    C    3  dxy    Ryd( 3d)     0.00073       1.99705
    54    C    3  dxz    Ryd( 3d)     0.00058       1.55638
    55    C    3  dyz    Ryd( 3d)     0.00050       1.43600
    56    C    3  dx2y2  Ryd( 3d)     0.00046       1.93701
    57    C    3  dz2    Ryd( 3d)     0.00028       1.83601

    58    S    4  S      Cor( 1S)     1.00000     -88.07342
    59    S    4  S      Cor( 2S)     0.99971      -9.07882
    60    S    4  S      Val( 3S)     0.84496      -1.00374
    61    S    4  S      Ryd( 5S)     0.00236       0.30779
    62    S    4  S      Ryd( 4S)     0.00019       0.10367
    63    S    4  S      Ryd( 6S)     0.00001       3.64622
    64    S    4  px     Cor( 2p)     0.99993      -6.19161
    65    S    4  px     Val( 3p)     0.64427      -0.44192
    66    S    4  px     Ryd( 5p)     0.00062       0.17497
    67    S    4  px     Ryd( 4p)     0.00006       0.02179
    68    S    4  py     Cor( 2p)     0.99994      -6.19510
    69    S    4  py     Val( 3p)     0.44457      -0.41783
    70    S    4  py     Ryd( 5p)     0.00271       0.21063
    71    S    4  py     Ryd( 4p)     0.00007       0.04941
    72    S    4  pz     Cor( 2p)     0.99997      -6.19284
    73    S    4  pz     Val( 3p)     0.76657      -0.49577
    74    S    4  pz     Ryd( 5p)     0.00162       0.20998
    75    S    4  pz     Ryd( 4p)     0.00000       0.03772
    76    S    4  dxy    Ryd( 3d)     0.00540       0.94260
    77    S    4  dxz    Ryd( 3d)     0.00215       0.57699
    78    S    4  dyz    Ryd( 3d)     0.00228       0.56556
    79    S    4  dx2y2  Ryd( 3d)     0.00131       0.74010
    80    S    4  dz2    Ryd( 3d)     0.00159       0.79003

    81    H    5  S      Val( 1S)     0.34478      -0.12134
    82    H    5  S      Ryd( 2S)     0.00019       0.33950

    83    H    6  S      Val( 1S)     0.33395      -0.12330
    84    H    6  S      Ryd( 2S)     0.00033       0.32201

    85    N    7  S      Cor( 1S)     0.99972     -14.39452
    86    N    7  S      Val( 2S)     0.70833      -0.78950
    87    N    7  S      Ryd( 3S)     0.00101       0.71689
    88    N    7  S      Ryd( 4S)     0.00012       1.41241
    89    N    7  S      Ryd( 5S)     0.00001       3.44038
    90    N    7  px     Val( 2p)     0.74237      -0.44920
    91    N    7  px     Ryd( 4p)     0.00285       0.58964
    92    N    7  px     Ryd( 3p)     0.00009       0.46618
    93    N    7  py     Val( 2p)     0.65656      -0.41426
    94    N    7  py     Ryd( 4p)     0.00297       0.66285
    95    N    7  py     Ryd( 3p)     0.00010       0.51416
    96    N    7  pz     Val( 2p)     0.54690      -0.41270
    97    N    7  pz     Ryd( 4p)     0.00040       0.48009
    98    N    7  pz     Ryd( 3p)     0.00002       0.35762
    99    N    7  dxy    Ryd( 3d)     0.00187       1.76256
   100    N    7  dxz    Ryd( 3d)     0.00154       1.51686
   101    N    7  dyz    Ryd( 3d)     0.00048       1.51210
   102    N    7  dx2y2  Ryd( 3d)     0.00198       2.05878
   103    N    7  dz2    Ryd( 3d)     0.00157       1.83232

   104    H    8  S      Val( 1S)     0.34226      -0.12380
   105    H    8  S      Ryd( 2S)     0.00023       0.33958

 WARNING:  Population inversion found on atom  C    1
           Population inversion found on atom  C    2
           Population inversion found on atom  C    3
           Population inversion found on atom  S    4
           Population inversion found on atom  N    7


 Summary of Natural Population Analysis:                  
                                                          
                                       Natural Population 
                Natural  -----------------------------------------------
    Atom  No    Charge         Core      Valence    Rydberg      Total
 -----------------------------------------------------------------------
      C    1   -0.17204      0.99970     2.15784    0.01450     3.17204
      C    2   -0.10676      0.99957     2.09453    0.01265     3.10676
      C    3   -0.31026      0.99959     2.30191    0.00877     3.31026
      S    4    0.27970      4.99955     2.70038    0.02037     7.72030
      H    5    0.15502      0.00000     0.34478    0.00019     0.34498
      H    6    0.16571      0.00000     0.33395    0.00033     0.33429
      N    7   -0.16890      0.99972     2.65417    0.01501     3.66890
      H    8    0.15752      0.00000     0.34226    0.00023     0.34248
 =======================================================================
   * Total *    0.00000      8.99813    12.92982    0.07205    22.00000

                                 Natural Population      
 --------------------------------------------------------
   Core                       8.99813 ( 99.9792% of   9)
   Valence                   12.92982 ( 99.4602% of  13)
   Natural Minimal Basis     21.92795 ( 99.6725% of  22)
   Natural Rydberg Basis      0.07205 (  0.3275% of  22)
 --------------------------------------------------------

    Atom  No          Natural Electron Configuration
 ----------------------------------------------------------------------------
      C    1      [core]2S( 0.55)2p( 1.61)4p( 0.01)
      C    2      [core]2S( 0.51)2p( 1.59)4p( 0.01)
      C    3      [core]2S( 0.57)2p( 1.73)4p( 0.01)
      S    4      [core]3S( 0.84)3p( 1.86)3d( 0.01)
      H    5            1S( 0.34)
      H    6            1S( 0.33)
      N    7      [core]2S( 0.71)2p( 1.95)3d( 0.01)4p( 0.01)
      H    8            1S( 0.34)


 NATURAL BOND ORBITAL ANALYSIS, alpha spin orbitals:

                       Occupancies       Lewis Structure    Low   High
           Occ.    -------------------  -----------------   occ   occ
  Cycle   Thresh.   Lewis   Non-Lewis     CR  BD  3C  LP    (L)   (NL)   Dev
 =============================================================================
   1(1)    0.90    21.32809   0.67191      9  10   0   3     1      2    0.04
   2(2)    0.90    21.32809   0.67191      9  10   0   3     1      2    0.04
   3(1)    0.80    21.22456   0.77544      9  10   0   3     1      2    0.03
   4(2)    0.80    21.22203   0.77797      9  10   0   3     1      2    0.04
   5(3)    0.80    21.22456   0.77544      9  10   0   3     1      2    0.03
   6(1)    0.70    21.54112   0.45888      9  10   0   3     0      2    0.04
 -----------------------------------------------------------------------------

 Structure accepted: No low occupancy Lewis orbitals

 --------------------------------------------------------
   Core                      8.99813 ( 99.979% of   9)
   Valence Lewis            12.54299 ( 96.485% of  13)
  ==================       ============================
   Total Lewis              21.54112 ( 97.914% of  22)
  -----------------------------------------------------
   Valence non-Lewis         0.42656 (  1.939% of  22)
   Rydberg non-Lewis         0.03233 (  0.147% of  22)
  ==================       ============================
   Total non-Lewis           0.45888 (  2.086% of  22)
 --------------------------------------------------------


       (Occupancy)   Bond orbital/ Coefficients/ Hybrids
 ---------------------------------------------------------------------------------
     1. (0.99300) BD ( 1) C   1 - S   4  
                ( 52.31%)   0.7232* C   1 s( 27.59%)p 2.62( 72.27%)d 0.01(  0.15%)
                                            0.0000  0.5245  0.0261  0.0115 -0.0017
                                           -0.6081  0.0371  0.0056  0.5915  0.0385
                                           -0.0108  0.0002  0.0000  0.0000 -0.0342
                                            0.0000  0.0000 -0.0030 -0.0174
                ( 47.69%)   0.6906* S   4 s( 14.78%)p 5.72( 84.48%)d 0.05(  0.74%)
                                            0.0000  0.0001  0.3823 -0.0397  0.0009
                                            0.0010  0.0000  0.5743 -0.0024 -0.0034
                                            0.0000 -0.7158  0.0516 -0.0010  0.0000
                                            0.0010  0.0000  0.0000 -0.0781  0.0001
                                           -0.0001  0.0032 -0.0365
     2. (0.99510) BD ( 1) C   1 - N   7  
                ( 41.35%)   0.6431* C   1 s( 34.46%)p 1.90( 65.48%)d 0.00(  0.06%)
                                            0.0001  0.5858 -0.0370 -0.0043  0.0018
                                            0.7598 -0.0744 -0.0015  0.2669  0.0258
                                           -0.0109 -0.0009  0.0001  0.0000  0.0154
                                           -0.0001  0.0000  0.0148 -0.0107
                ( 58.65%)   0.7658* N   7 s( 35.03%)p 1.85( 64.68%)d 0.01(  0.29%)
                                           -0.0001  0.5914 -0.0228 -0.0040 -0.0005
                                           -0.7393  0.0060  0.0070 -0.3145  0.0341
                                           -0.0014  0.0006  0.0000  0.0000  0.0119
                                           -0.0001  0.0000  0.0414 -0.0325
     3. (0.94026) BD ( 2) C   1 - N   7  
                ( 50.27%)   0.7090* C   1 s(  0.00%)p 1.00( 99.91%)d 0.00(  0.09%)
                                            0.0000  0.0006  0.0000  0.0000  0.0000
                                            0.0008  0.0000  0.0000 -0.0001  0.0000
                                            0.0000  0.9993  0.0138  0.0169  0.0000
                                            0.0184  0.0236  0.0000  0.0000
                ( 49.73%)   0.7052* N   7 s(  0.00%)p 1.00( 99.64%)d 0.00(  0.36%)
                                            0.0000 -0.0003  0.0000  0.0000  0.0000
                                            0.0008  0.0000  0.0000 -0.0005 -0.0001
                                            0.0000  0.9980 -0.0181  0.0037  0.0000
                                           -0.0557  0.0222  0.0000  0.0001
     4. (0.99255) BD ( 1) C   1 - H   8  
                ( 66.06%)   0.8128* C   1 s( 37.93%)p 1.64( 62.02%)d 0.00(  0.05%)
                                           -0.0003  0.6158  0.0060 -0.0075  0.0005
                                           -0.2091 -0.0153  0.0015 -0.7591 -0.0104
                                            0.0021 -0.0003  0.0000  0.0000  0.0118
                                            0.0000  0.0000 -0.0164 -0.0066
                ( 33.94%)   0.5826* H   8 s(100.00%)
                                            1.0000  0.0031
     5. (0.99624) BD ( 1) C   2 - C   3  
                ( 48.95%)   0.6996* C   2 s( 35.41%)p 1.82( 64.53%)d 0.00(  0.06%)
                                            0.0000  0.5950 -0.0088 -0.0065  0.0010
                                           -0.7015  0.0013 -0.0099  0.3892 -0.0400
                                           -0.0021  0.0000  0.0000  0.0000 -0.0175
                                            0.0000  0.0000  0.0159 -0.0065
                ( 51.05%)   0.7145* C   3 s( 36.81%)p 1.72( 63.14%)d 0.00(  0.05%)
                                            0.0001  0.6066 -0.0123  0.0056  0.0025
                                            0.7193 -0.0422 -0.0009 -0.3343 -0.0193
                                            0.0065  0.0003  0.0000  0.0000 -0.0187
                                            0.0000  0.0000  0.0078 -0.0093
     6. (0.95170) BD ( 2) C   2 - C   3  
                ( 46.59%)   0.6826* C   2 s(  0.00%)p 1.00( 99.87%)d 0.00(  0.13%)
                                            0.0000  0.0002  0.0000  0.0000  0.0000
                                           -0.0001  0.0000  0.0000 -0.0005  0.0000
                                            0.0000  0.9992  0.0134 -0.0109  0.0000
                                           -0.0347  0.0100  0.0000  0.0000
                ( 53.41%)   0.7308* C   3 s(  0.00%)p 1.00( 99.88%)d 0.00(  0.12%)
                                            0.0000 -0.0001  0.0000  0.0000  0.0000
                                           -0.0004  0.0000  0.0000  0.0000  0.0000
                                            0.0000  0.9993  0.0072  0.0104  0.0000
                                            0.0217 -0.0264  0.0000  0.0000
     7. (0.98966) BD ( 1) C   2 - H   5  
                ( 65.70%)   0.8106* C   2 s( 35.03%)p 1.85( 64.93%)d 0.00(  0.04%)
                                           -0.0004  0.5915  0.0186  0.0059 -0.0020
                                            0.7103  0.0166  0.0020  0.3793  0.0237
                                            0.0030  0.0001  0.0000  0.0000  0.0165
                                            0.0000  0.0000  0.0100 -0.0072
                ( 34.30%)   0.5856* H   5 s(100.00%)
                                            1.0000  0.0032
     8. (0.99151) BD ( 1) C   2 - N   7  
                ( 41.67%)   0.6455* C   2 s( 29.55%)p 2.38( 70.39%)d 0.00(  0.06%)
                                            0.0000 -0.5434  0.0147 -0.0004 -0.0020
                                            0.0055  0.0553  0.0088  0.8362 -0.0385
                                            0.0065  0.0005 -0.0001  0.0000 -0.0047
                                            0.0000  0.0000  0.0218  0.0113
                ( 58.33%)   0.7637* N   7 s( 30.02%)p 2.32( 69.73%)d 0.01(  0.25%)
                                            0.0002 -0.5476  0.0148 -0.0059 -0.0013
                                           -0.0838  0.0346 -0.0030 -0.8300  0.0099
                                            0.0091 -0.0005  0.0000  0.0000  0.0206
                                            0.0000 -0.0001  0.0348  0.0300
     9. (0.98998) BD ( 1) C   3 - S   4  
                ( 54.09%)   0.7355* C   3 s( 25.65%)p 2.89( 74.23%)d 0.00(  0.12%)
                                           -0.0002  0.5061  0.0140 -0.0134 -0.0014
                                           -0.6732  0.0377  0.0049 -0.5350 -0.0369
                                            0.0069 -0.0002  0.0000  0.0000  0.0294
                                            0.0000  0.0000 -0.0028 -0.0183
                ( 45.91%)   0.6776* S   4 s( 15.83%)p 5.27( 83.43%)d 0.05(  0.74%)
                                            0.0000  0.0001  0.3950 -0.0479  0.0001
                                           -0.0009  0.0000  0.6010 -0.0061 -0.0041
                                            0.0000  0.6857 -0.0530  0.0012  0.0000
                                            0.0000  0.0000  0.0000  0.0765  0.0000
                                            0.0000  0.0133 -0.0374
    10. (0.99332) BD ( 1) C   3 - H   6  
                ( 66.71%)   0.8167* C   3 s( 37.47%)p 1.67( 62.50%)d 0.00(  0.03%)
                                           -0.0002  0.6121  0.0005  0.0057 -0.0005
                                           -0.1561 -0.0013 -0.0009  0.7749  0.0062
                                            0.0011  0.0000  0.0000  0.0000 -0.0065
                                            0.0000  0.0000 -0.0143 -0.0083
                ( 33.29%)   0.5770* H   6 s(100.00%)
                                            1.0000  0.0035
    11. (0.99970) CR ( 1) C   1           s(100.00%)p 0.00(  0.00%)
                                            1.0000  0.0001  0.0000  0.0000  0.0000
                                           -0.0002  0.0000  0.0000 -0.0003  0.0000
                                            0.0000  0.0000  0.0000  0.0000  0.0000
                                            0.0000  0.0000  0.0000  0.0000
    12. (0.99957) CR ( 1) C   2           s(100.00%)p 0.00(  0.00%)
                                            1.0000  0.0003  0.0000  0.0000  0.0000
                                            0.0003  0.0000  0.0000  0.0002  0.0000
                                            0.0000  0.0000  0.0000  0.0000  0.0000
                                            0.0000  0.0000  0.0000  0.0000
    13. (0.99959) CR ( 1) C   3           s(100.00%)p 0.00(  0.00%)
                                            1.0000  0.0002  0.0000  0.0000  0.0000
                                           -0.0002  0.0000  0.0000  0.0001  0.0000
                                            0.0000  0.0000  0.0000  0.0000  0.0000
                                            0.0000  0.0000  0.0000  0.0000
    14. (1.00000) CR ( 1) S   4           s(100.00%)
                                            1.0000  0.0000  0.0000  0.0000  0.0000
                                            0.0000  0.0000  0.0000  0.0000  0.0000
                                            0.0000  0.0000  0.0000  0.0000  0.0000
                                            0.0000  0.0000  0.0000  0.0000  0.0000
                                            0.0000  0.0000  0.0000
    15. (0.99971) CR ( 2) S   4           s(100.00%)p 0.00(  0.00%)
                                            0.0000  1.0000  0.0002  0.0000  0.0000
                                            0.0000  0.0000 -0.0003  0.0000  0.0000
                                            0.0000  0.0000  0.0000  0.0000  0.0000
                                            0.0000  0.0000  0.0000  0.0000  0.0000
                                            0.0000  0.0000  0.0000
    16. (0.99993) CR ( 3) S   4           s(  0.00%)p 1.00(100.00%)
                                            0.0000  0.0000  0.0001  0.0000  0.0000
                                            0.0000  1.0000 -0.0001  0.0000  0.0000
                                            0.0000  0.0000  0.0000  0.0000  0.0000
                                            0.0000  0.0000  0.0000  0.0000  0.0000
                                            0.0000  0.0000  0.0000
    17. (0.99994) CR ( 4) S   4           s(  0.00%)p 1.00(100.00%)
                                            0.0000  0.0000  0.0000  0.0000  0.0000
                                            0.0000  0.0000  0.0000  0.0000  0.0000
                                            1.0000  0.0000  0.0000  0.0000  0.0000
                                            0.0000  0.0000  0.0000  0.0000  0.0000
                                            0.0000  0.0000  0.0000
    18. (0.99997) CR ( 5) S   4           s(  0.00%)p 1.00(100.00%)
                                            0.0000  0.0000  0.0000  0.0000  0.0000
                                            0.0000  0.0000  0.0000  0.0000  0.0000
                                            0.0000  0.0000  0.0000  0.0000  1.0000
                                           -0.0013 -0.0001  0.0000  0.0000 -0.0001
                                            0.0000  0.0000  0.0000
    19. (0.99972) CR ( 1) N   7           s(100.00%)p 0.00(  0.00%)
                                            1.0000  0.0001  0.0000  0.0000  0.0000
                                           -0.0001  0.0000  0.0000  0.0002  0.0000
                                            0.0000  0.0000  0.0000  0.0000  0.0000
                                            0.0000  0.0000  0.0000  0.0000
    20. (0.99284) LP ( 1) S   4           s( 69.76%)p 0.43( 30.20%)d 0.00(  0.04%)
                                            0.0000 -0.0003  0.8350  0.0210  0.0001
                                           -0.0001 -0.0001 -0.5495 -0.0076 -0.0008
                                            0.0000  0.0031  0.0003  0.0005  0.0000
                                            0.0000  0.0000  0.0000  0.0008  0.0000
                                            0.0000 -0.0121  0.0153
    21. (0.76941) LP ( 2) S   4           s(  0.00%)p 1.00( 99.78%)d 0.00(  0.22%)
                                            0.0000  0.0000  0.0004  0.0000  0.0000
                                            0.0000  0.0000  0.0005  0.0000  0.0000
                                            0.0000 -0.0008  0.0000  0.0000 -0.0013
                                           -0.9982 -0.0391 -0.0004  0.0000 -0.0458
                                            0.0071  0.0000  0.0000
    22. (0.94740) LP ( 1) N   7           s( 34.96%)p 1.85( 64.82%)d 0.01(  0.22%)
                                            0.0001  0.5909  0.0216 -0.0010 -0.0005
                                            0.6637  0.0226  0.0040 -0.4547 -0.0178
                                           -0.0039 -0.0006  0.0000  0.0000  0.0392
                                            0.0001 -0.0001 -0.0150  0.0210
    23. (0.00392) RY*( 1) C   1           s(  7.19%)p11.92( 85.71%)d 0.99(  7.10%)
                                            0.0000  0.0311  0.2594 -0.0554 -0.0238
                                            0.0859  0.8985  0.1856 -0.0195 -0.0448
                                           -0.0750  0.0000 -0.0008 -0.0001 -0.2309
                                            0.0003  0.0000  0.1319 -0.0173
    24. (0.00225) RY*( 2) C   1           s( 13.84%)p 4.46( 61.79%)d 1.76( 24.37%)
                                            0.0000 -0.0284  0.3533 -0.0938  0.0632
                                            0.0008 -0.2608  0.1830 -0.0374  0.6975
                                           -0.1686 -0.0001  0.0011 -0.0003 -0.3343
                                           -0.0003  0.0002  0.3596  0.0515
    25. (0.00114) RY*( 3) C   1           s(  0.00%)p 1.00( 41.71%)d 1.40( 58.29%)
                                            0.0000  0.0000 -0.0006  0.0007  0.0000
                                            0.0000  0.0012 -0.0005  0.0000 -0.0001
                                            0.0001  0.0051  0.6279 -0.1507 -0.0005
                                           -0.7549  0.1145 -0.0011  0.0006
    26. (0.00039) RY*( 4) C   1           s( 25.94%)p 1.89( 49.06%)d 0.96( 25.00%)
                                            0.0000 -0.0077 -0.2144  0.4354  0.1542
                                            0.0185  0.2629 -0.2775 -0.0206  0.5805
                                           -0.0817  0.0000  0.0000  0.0005  0.0766
                                            0.0016 -0.0005 -0.4822  0.1076
    27. (0.00034) RY*( 5) C   1           s( 52.12%)p 0.50( 25.97%)d 0.42( 21.91%)
                                            0.0000  0.0093  0.7117  0.0106  0.1204
                                            0.0185  0.0209 -0.3536  0.0141  0.0352
                                            0.3639  0.0000 -0.0003 -0.0002  0.4664
                                           -0.0007  0.0003  0.0099  0.0388
    28. (0.00016) RY*( 6) C   1           s(  0.00%)p 1.00( 39.25%)d 1.55( 60.75%)
                                            0.0000  0.0000  0.0014  0.0008  0.0003
                                            0.0000 -0.0001 -0.0004  0.0000 -0.0017
                                           -0.0010 -0.0008  0.5457  0.3078 -0.0002
                                            0.2823 -0.7265  0.0007  0.0007
    29. (0.00004) RY*( 7) C   1           s( 47.40%)p 0.45( 21.52%)d 0.66( 31.09%)
    30. (0.00001) RY*( 8) C   1           s( 28.38%)p 0.66( 18.70%)d 1.86( 52.91%)
    31. (0.00001) RY*( 9) C   1           s( 14.61%)p 4.85( 70.89%)d 0.99( 14.50%)
    32. (0.00000) RY*(10) C   1           s(  0.00%)p 1.00( 35.58%)d 1.81( 64.42%)
    33. (0.00000) RY*(11) C   1           s(  0.00%)p 1.00( 83.56%)d 0.20( 16.44%)
    34. (0.00001) RY*(12) C   1           s( 92.10%)p 0.04(  3.31%)d 0.05(  4.59%)
    35. (0.00001) RY*(13) C   1           s( 17.89%)p 3.44( 61.45%)d 1.16( 20.66%)
    36. (0.00001) RY*(14) C   1           s(  0.55%)p 3.36(  1.84%)d99.99( 97.62%)
    37. (0.00356) RY*( 1) C   2           s(  7.79%)p10.34( 80.56%)d 1.50( 11.65%)
                                            0.0000  0.0138  0.2249 -0.1645  0.0107
                                            0.0421  0.1497 -0.1034 -0.0441 -0.8693
                                            0.1139  0.0000 -0.0001  0.0001 -0.3209
                                           -0.0001  0.0000 -0.1151  0.0171
    38. (0.00261) RY*( 2) C   2           s(  8.59%)p10.07( 86.42%)d 0.58(  4.99%)
                                            0.0000 -0.0170  0.2803  0.0527  0.0651
                                            0.0106 -0.9225 -0.0825  0.0460 -0.0098
                                           -0.0644  0.0000  0.0011  0.0001 -0.2084
                                            0.0000  0.0001 -0.0649  0.0477
    39. (0.00065) RY*( 3) C   2           s(  0.00%)p 1.00(  8.43%)d10.87( 91.57%)
                                            0.0000  0.0000  0.0002  0.0004 -0.0001
                                            0.0000 -0.0002  0.0003  0.0000 -0.0002
                                           -0.0007 -0.0174 -0.2519  0.1432  0.0004
                                           -0.3910  0.8734  0.0005  0.0005
    40. (0.00044) RY*( 4) C   2           s( 11.32%)p 5.27( 59.70%)d 2.56( 28.98%)
                                            0.0000 -0.0008  0.3280  0.0287 -0.0693
                                           -0.0109  0.1738 -0.4287 -0.0137  0.3438
                                            0.5144  0.0000  0.0027  0.0006 -0.4221
                                            0.0002  0.0013  0.3125  0.1182
    41. (0.00031) RY*( 5) C   2           s(  0.00%)p 1.00( 76.44%)d 0.31( 23.55%)
                                            0.0000  0.0000  0.0032 -0.0012 -0.0003
                                           -0.0001  0.0000 -0.0005  0.0000  0.0019
                                            0.0014  0.0034 -0.8674 -0.1095 -0.0012
                                           -0.3119 -0.3718 -0.0005 -0.0004
    42. (0.00017) RY*( 6) C   2           s( 64.95%)p 0.40( 26.20%)d 0.14(  8.85%)
                                            0.0000  0.0093  0.8024 -0.0742  0.0073
                                           -0.0328  0.1583  0.4674 -0.0130  0.1309
                                            0.0099  0.0000  0.0021 -0.0001  0.2333
                                            0.0011  0.0008 -0.1614  0.0894
    43. (0.00010) RY*( 7) C   2           s( 35.75%)p 0.25(  8.95%)d 1.55( 55.30%)
    44. (0.00004) RY*( 8) C   2           s( 48.83%)p 0.14(  7.07%)d 0.90( 44.10%)
    45. (0.00001) RY*( 9) C   2           s( 37.49%)p 0.73( 27.24%)d 0.94( 35.27%)
    46. (0.00000) RY*(10) C   2           s( 20.04%)p 2.89( 57.86%)d 1.10( 22.11%)
    47. (0.00000) RY*(11) C   2           s(  0.00%)p 1.00( 18.64%)d 4.37( 81.36%)
    48. (0.00000) RY*(12) C   2           s( 37.93%)p 1.17( 44.21%)d 0.47( 17.86%)
    49. (0.00000) RY*(13) C   2           s(  0.00%)p 1.00( 96.62%)d 0.03(  3.38%)
    50. (0.00000) RY*(14) C   2           s( 27.31%)p 0.07(  1.95%)d 2.59( 70.73%)
    51. (0.00171) RY*( 1) C   3           s(  9.79%)p 7.82( 76.54%)d 1.40( 13.67%)
                                            0.0000 -0.0162  0.2743  0.1491 -0.0133
                                           -0.0323 -0.7167  0.0418  0.0154 -0.4986
                                           -0.0092  0.0000  0.0001  0.0001  0.0899
                                           -0.0004  0.0000  0.3582  0.0183
    52. (0.00112) RY*( 2) C   3           s( 19.33%)p 3.73( 72.17%)d 0.44(  8.49%)
                                            0.0000 -0.0070  0.4323  0.0798  0.0072
                                            0.0541  0.6687  0.1238  0.0264 -0.5005
                                           -0.0716  0.0000 -0.0001  0.0000  0.1954
                                            0.0004  0.0001  0.2159 -0.0115
    53. (0.00080) RY*( 3) C   3           s(  0.00%)p 1.00( 29.18%)d 2.43( 70.82%)
                                            0.0000  0.0000  0.0003 -0.0001  0.0000
                                            0.0000 -0.0007  0.0001  0.0000  0.0002
                                           -0.0001 -0.0127 -0.5249  0.1271  0.0002
                                            0.8340  0.1120 -0.0002  0.0003
    54. (0.00035) RY*( 4) C   3           s( 52.94%)p 0.72( 37.93%)d 0.17(  9.14%)
                                            0.0000  0.0179  0.6998  0.1690  0.1038
                                           -0.0079 -0.0394 -0.1496 -0.0207  0.5336
                                           -0.2649  0.0000  0.0006  0.0001 -0.2643
                                            0.0001  0.0002  0.1369  0.0526
    55. (0.00016) RY*( 5) C   3           s(  0.00%)p 1.00( 53.66%)d 0.86( 46.34%)
                                            0.0000  0.0001 -0.0003  0.0019 -0.0008
                                            0.0000  0.0000  0.0033  0.0000  0.0030
                                           -0.0002 -0.0023 -0.6525 -0.3328  0.0037
                                           -0.2764 -0.6221  0.0023  0.0002
    56. (0.00012) RY*( 6) C   3           s( 15.06%)p 2.92( 43.98%)d 2.72( 40.97%)
                                            0.0000  0.0132 -0.1477  0.3195 -0.1629
                                            0.0059 -0.0082  0.5139 -0.0034  0.4065
                                           -0.1011  0.0001  0.0039  0.0020  0.5525
                                            0.0014  0.0047  0.3228  0.0132
    57. (0.00005) RY*( 7) C   3           s( 73.70%)p 0.16( 11.70%)d 0.20( 14.60%)
    58. (0.00001) RY*( 8) C   3           s(  0.11%)p99.99( 58.67%)d99.99( 41.22%)
    59. (0.00002) RY*( 9) C   3           s( 28.08%)p 2.55( 71.66%)d 0.01(  0.26%)
    60. (0.00002) RY*(10) C   3           s( 22.35%)p 0.39(  8.72%)d 3.08( 68.93%)
    61. (0.00000) RY*(11) C   3           s(  0.00%)p 1.00( 89.88%)d 0.11( 10.12%)
    62. (0.00000) RY*(12) C   3           s(  0.00%)p 1.00( 27.40%)d 2.65( 72.60%)
    63. (0.00000) RY*(13) C   3           s( 77.79%)p 0.24( 18.35%)d 0.05(  3.87%)
    64. (0.00001) RY*(14) C   3           s(  0.92%)p 0.46(  0.42%)d99.99( 98.66%)
    65. (0.00230) RY*( 1) S   4           s(  0.00%)p 1.00(  2.78%)d34.99( 97.22%)
                                            0.0000  0.0000  0.0000  0.0003  0.0001
                                            0.0001  0.0000  0.0000 -0.0003  0.0000
                                            0.0000  0.0001  0.0002  0.0000  0.0000
                                           -0.0082  0.1658  0.0156  0.0001 -0.1154
                                           -0.9792  0.0007  0.0004
    66. (0.00164) RY*( 2) S   4           s(  1.21%)p31.65( 38.34%)d49.90( 60.45%)
                                            0.0000  0.0000  0.0037  0.0840  0.0454
                                            0.0546  0.0000  0.0180  0.5377  0.0636
                                            0.0000 -0.0406 -0.2966 -0.0176  0.0000
                                            0.0000 -0.0008  0.0001  0.2315  0.0007
                                           -0.0009 -0.7422  0.0102
    67. (0.00093) RY*( 3) S   4           s(  0.01%)p 1.00( 41.45%)d 1.41( 58.55%)
                                            0.0000  0.0000 -0.0002 -0.0052  0.0054
                                           -0.0013  0.0000 -0.0004  0.0024 -0.0042
                                            0.0000  0.0032  0.0145  0.0015  0.0000
                                            0.0102  0.6424 -0.0378 -0.0188 -0.7395
                                            0.1952 -0.0127 -0.0071
    68. (0.00088) RY*( 4) S   4           s(  7.87%)p 3.63( 28.59%)d 8.07( 63.54%)
                                            0.0000  0.0000  0.0079  0.2122 -0.1761
                                            0.0512  0.0000  0.0177 -0.0405  0.1533
                                            0.0000 -0.1098 -0.4950 -0.0551  0.0000
                                            0.0004  0.0187 -0.0012  0.6430 -0.0218
                                            0.0061  0.4101  0.2308
    69. (0.00035) RY*( 5) S   4           s( 28.99%)p 0.96( 27.76%)d 1.49( 43.25%)
                                            0.0000  0.0000 -0.0123 -0.2789  0.4596
                                           -0.0277  0.0000 -0.0251 -0.3692  0.1054
                                            0.0000 -0.0423  0.3101 -0.1777  0.0000
                                            0.0000  0.0002  0.0000  0.5911 -0.0002
                                            0.0000 -0.2005 -0.2072
    70. (0.00017) RY*( 6) S   4           s( 12.92%)p 5.64( 72.85%)d 1.10( 14.23%)
                                            0.0000  0.0000  0.0168  0.3562 -0.0152
                                            0.0423  0.0000  0.0386  0.4292  0.1979
                                            0.0000  0.0349  0.6850 -0.1821  0.0000
                                            0.0000 -0.0007  0.0000  0.1636  0.0005
                                            0.0002  0.1553  0.3024
    71. (0.00013) RY*( 7) S   4           s( 77.00%)p 0.19( 14.30%)d 0.11(  8.70%)
                                            0.0000  0.0000  0.0086  0.3778  0.7892
                                            0.0665  0.0000  0.0264 -0.0061  0.2726
                                            0.0000  0.0121 -0.2311  0.1202  0.0000
                                            0.0000  0.0000  0.0000 -0.2545  0.0007
                                            0.0001  0.1261  0.0794
    72. (0.00005) RY*( 8) S   4           s(  1.38%)p68.42( 94.19%)d 3.22(  4.43%)
    73. (0.00000) RY*( 9) S   4           s(  0.00%)p 1.00( 99.88%)d 0.00(  0.12%)
    74. (0.00001) RY*(10) S   4           s(  9.25%)p 9.22( 85.30%)d 0.59(  5.45%)
    75. (0.00000) RY*(11) S   4           s( 99.27%)p 0.01(  0.58%)d 0.00(  0.16%)
    76. (0.00001) RY*(12) S   4           s( 52.01%)p 0.12(  6.42%)d 0.80( 41.57%)
    77. (0.00000) RY*(13) S   4           s(  0.00%)p 1.00( 56.10%)d 0.78( 43.90%)
    78. (0.00000) RY*(14) S   4           s(  9.74%)p 3.45( 33.57%)d 5.82( 56.69%)
    79. (0.00020) RY*( 1) H   5           s(100.00%)
                                           -0.0032  1.0000
    80. (0.00033) RY*( 1) H   6           s(100.00%)
                                           -0.0035  1.0000
    81. (0.00245) RY*( 1) N   7           s(  2.77%)p34.87( 96.74%)d 0.17(  0.49%)
                                            0.0000 -0.0050  0.1471  0.0759  0.0180
                                            0.0307 -0.6336 -0.0236 -0.0148  0.7511
                                           -0.0088  0.0000  0.0001  0.0000  0.0463
                                           -0.0001  0.0003  0.0226 -0.0469
    82. (0.00120) RY*( 2) N   7           s(  2.04%)p47.48( 96.82%)d 0.56(  1.14%)
                                            0.0000  0.0011  0.1306  0.0561 -0.0138
                                            0.0179  0.7612 -0.0935  0.0403  0.6066
                                           -0.1003  0.0001  0.0009  0.0000 -0.0459
                                            0.0003  0.0007  0.0960 -0.0078
    83. (0.00035) RY*( 3) N   7           s(  0.00%)p 1.00( 96.54%)d 0.04(  3.46%)
                                            0.0000  0.0001  0.0029 -0.0013 -0.0002
                                           -0.0002 -0.0007  0.0010 -0.0001 -0.0009
                                           -0.0007  0.0283  0.9741  0.1256 -0.0007
                                            0.1758 -0.0607 -0.0013  0.0010
    84. (0.00019) RY*( 4) N   7           s( 46.30%)p 0.22( 10.05%)d 0.94( 43.64%)
                                            0.0000  0.0031  0.5584 -0.3506  0.1682
                                           -0.0414  0.0324 -0.2470  0.0381 -0.0724
                                            0.1734 -0.0001 -0.0015 -0.0002  0.6030
                                           -0.0029 -0.0064 -0.0889  0.2548
    85. (0.00015) RY*( 5) N   7           s(  0.00%)p 1.00(  0.17%)d99.99( 99.83%)
                                            0.0000  0.0000  0.0003  0.0062 -0.0011
                                            0.0001  0.0002  0.0016 -0.0003  0.0000
                                           -0.0016 -0.0067  0.0276  0.0298 -0.0062
                                           -0.4763 -0.8783 -0.0011 -0.0018
    86. (0.00011) RY*( 6) N   7           s( 61.81%)p 0.09(  5.31%)d 0.53( 32.88%)
                                            0.0000  0.0120  0.5326  0.5763  0.0472
                                           -0.0371  0.0033 -0.1536 -0.0265 -0.1286
                                            0.1041  0.0000 -0.0015 -0.0002 -0.3461
                                            0.0021  0.0055 -0.4571 -0.0047
    87. (0.00007) RY*( 7) N   7           s( 20.45%)p 1.86( 38.04%)d 2.03( 41.52%)
    88. (0.00002) RY*( 8) N   7           s( 26.23%)p 1.63( 42.66%)d 1.19( 31.11%)
    89. (0.00001) RY*( 9) N   7           s(  7.16%)p 0.53(  3.76%)d12.44( 89.08%)
    90. (0.00001) RY*(10) N   7           s( 35.84%)p 0.23(  8.22%)d 1.56( 55.94%)
    91. (0.00000) RY*(11) N   7           s(  0.00%)p 1.00(  3.72%)d25.90( 96.28%)
    92. (0.00000) RY*(12) N   7           s(  0.70%)p99.99( 98.11%)d 1.70(  1.19%)
    93. (0.00000) RY*(13) N   7           s( 96.67%)p 0.01(  1.07%)d 0.02(  2.26%)
    94. (0.00000) RY*(14) N   7           s(  0.00%)p 1.00( 99.93%)d 0.00(  0.07%)
    95. (0.00023) RY*( 1) H   8           s(100.00%)
                                           -0.0031  1.0000
    96. (0.03626) BD*( 1) C   1 - S   4  
                ( 47.69%)   0.6906* C   1 s( 27.59%)p 2.62( 72.27%)d 0.01(  0.15%)
                                            0.0000 -0.5245 -0.0261 -0.0115  0.0017
                                            0.6081 -0.0371 -0.0056 -0.5915 -0.0385
                                            0.0108 -0.0002  0.0000  0.0000  0.0342
                                            0.0000  0.0000  0.0030  0.0174
                ( 52.31%)  -0.7232* S   4 s( 14.78%)p 5.72( 84.48%)d 0.05(  0.74%)
                                            0.0000 -0.0001 -0.3823  0.0397 -0.0009
                                           -0.0010  0.0000 -0.5743  0.0024  0.0034
                                            0.0000  0.7158 -0.0516  0.0010  0.0000
                                           -0.0010  0.0000  0.0000  0.0781 -0.0001
                                            0.0001 -0.0032  0.0365
    97. (0.00743) BD*( 1) C   1 - N   7  
                ( 58.65%)   0.7658* C   1 s( 34.46%)p 1.90( 65.48%)d 0.00(  0.06%)
                                            0.0001  0.5858 -0.0370 -0.0043  0.0018
                                            0.7598 -0.0744 -0.0015  0.2669  0.0258
                                           -0.0109 -0.0009  0.0001  0.0000  0.0154
                                           -0.0001  0.0000  0.0148 -0.0107
                ( 41.35%)  -0.6431* N   7 s( 35.03%)p 1.85( 64.68%)d 0.01(  0.29%)
                                           -0.0001  0.5914 -0.0228 -0.0040 -0.0005
                                           -0.7393  0.0060  0.0070 -0.3145  0.0341
                                           -0.0014  0.0006  0.0000  0.0000  0.0119
                                           -0.0001  0.0000  0.0414 -0.0325
    98. (0.16163) BD*( 2) C   1 - N   7  
                ( 49.73%)   0.7052* C   1 s(  0.00%)p 1.00( 99.91%)d 0.00(  0.09%)
                                            0.0000 -0.0006  0.0000  0.0000  0.0000
                                           -0.0008  0.0000  0.0000  0.0001  0.0000
                                            0.0000 -0.9993 -0.0138 -0.0169  0.0000
                                           -0.0184 -0.0236  0.0000  0.0000
                ( 50.27%)  -0.7090* N   7 s(  0.00%)p 1.00( 99.64%)d 0.00(  0.36%)
                                            0.0000  0.0003  0.0000  0.0000  0.0000
                                           -0.0008  0.0000  0.0000  0.0005  0.0001
                                            0.0000 -0.9980  0.0181 -0.0037  0.0000
                                            0.0557 -0.0222  0.0000 -0.0001
    99. (0.00815) BD*( 1) C   1 - H   8  
                ( 33.94%)   0.5826* C   1 s( 37.93%)p 1.64( 62.02%)d 0.00(  0.05%)
                                            0.0003 -0.6158 -0.0060  0.0075 -0.0005
                                            0.2091  0.0153 -0.0015  0.7591  0.0104
                                           -0.0021  0.0003  0.0000  0.0000 -0.0118
                                            0.0000  0.0000  0.0164  0.0066
                ( 66.06%)  -0.8128* H   8 s(100.00%)
                                           -1.0000 -0.0031
   100. (0.01278) BD*( 1) C   2 - C   3  
                ( 51.05%)   0.7145* C   2 s( 35.41%)p 1.82( 64.53%)d 0.00(  0.06%)
                                            0.0000  0.5950 -0.0088 -0.0065  0.0010
                                           -0.7015  0.0013 -0.0099  0.3892 -0.0400
                                           -0.0021  0.0000  0.0000  0.0000 -0.0175
                                            0.0000  0.0000  0.0159 -0.0065
                ( 48.95%)  -0.6996* C   3 s( 36.81%)p 1.72( 63.14%)d 0.00(  0.05%)
                                            0.0001  0.6066 -0.0123  0.0056  0.0025
                                            0.7193 -0.0422 -0.0009 -0.3343 -0.0193
                                            0.0065  0.0003  0.0000  0.0000 -0.0187
                                            0.0000  0.0000  0.0078 -0.0093
   101. (0.17007) BD*( 2) C   2 - C   3  
                ( 53.41%)   0.7308* C   2 s(  0.00%)p 1.00( 99.87%)d 0.00(  0.13%)
                                            0.0000  0.0002  0.0000  0.0000  0.0000
                                           -0.0001  0.0000  0.0000 -0.0005  0.0000
                                            0.0000  0.9992  0.0134 -0.0109  0.0000
                                           -0.0347  0.0100  0.0000  0.0000
                ( 46.59%)  -0.6826* C   3 s(  0.00%)p 1.00( 99.88%)d 0.00(  0.12%)
                                            0.0000 -0.0001  0.0000  0.0000  0.0000
                                           -0.0004  0.0000  0.0000  0.0000  0.0000
                                            0.0000  0.9993  0.0072  0.0104  0.0000
                                            0.0217 -0.0264  0.0000  0.0000
   102. (0.00818) BD*( 1) C   2 - H   5  
                ( 34.30%)   0.5856* C   2 s( 35.03%)p 1.85( 64.93%)d 0.00(  0.04%)
                                            0.0004 -0.5915 -0.0186 -0.0059  0.0020
                                           -0.7103 -0.0166 -0.0020 -0.3793 -0.0237
                                           -0.0030 -0.0001  0.0000  0.0000 -0.0165
                                            0.0000  0.0000 -0.0100  0.0072
                ( 65.70%)  -0.8106* H   5 s(100.00%)
                                           -1.0000 -0.0032
   103. (0.00801) BD*( 1) C   2 - N   7  
                ( 58.33%)   0.7637* C   2 s( 29.55%)p 2.38( 70.39%)d 0.00(  0.06%)
                                            0.0000 -0.5434  0.0147 -0.0004 -0.0020
                                            0.0055  0.0553  0.0088  0.8362 -0.0385
                                            0.0065  0.0005 -0.0001  0.0000 -0.0047
                                            0.0000  0.0000  0.0218  0.0113
                ( 41.67%)  -0.6455* N   7 s( 30.02%)p 2.32( 69.73%)d 0.01(  0.25%)
                                            0.0002 -0.5476  0.0148 -0.0059 -0.0013
                                           -0.0838  0.0346 -0.0030 -0.8300  0.0099
                                            0.0091 -0.0005  0.0000  0.0000  0.0206
                                            0.0000 -0.0001  0.0348  0.0300
   104. (0.00919) BD*( 1) C   3 - S   4  
                ( 45.91%)   0.6776* C   3 s( 25.65%)p 2.89( 74.23%)d 0.00(  0.12%)
                                            0.0002 -0.5061 -0.0140  0.0134  0.0014
                                            0.6732 -0.0377 -0.0049  0.5350  0.0369
                                           -0.0069  0.0002  0.0000  0.0000 -0.0294
                                            0.0000  0.0000  0.0028  0.0183
                ( 54.09%)  -0.7355* S   4 s( 15.83%)p 5.27( 83.43%)d 0.05(  0.74%)
                                            0.0000 -0.0001 -0.3950  0.0479 -0.0001
                                            0.0009  0.0000 -0.6010  0.0061  0.0041
                                            0.0000 -0.6857  0.0530 -0.0012  0.0000
                                            0.0000  0.0000  0.0000 -0.0765  0.0000
                                            0.0000 -0.0133  0.0374
[...]
    97. BD*(   2) C   1 - S   4    90.0  134.3     0.0    0.0  90.0      0.0    0.0  90.0


 Second Order Perturbation Theory Analysis of Fock Matrix in NBO Basis

     Threshold for printing:   0.25 kcal/mol
                                                                              E(2)  E(j)-E(i) F(i,j)
         Donor NBO (i)                     Acceptor NBO (j)                 kcal/mol   a.u.    a.u. 
 ===================================================================================================

 within unit  1
   1. BD (   1) C   1 - S   4        / 52. RY*(   2) C   3                    0.36    1.51    0.029
   1. BD (   1) C   1 - S   4        / 81. RY*(   1) N   7                    0.82    1.49    0.044
   1. BD (   1) C   1 - S   4        / 82. RY*(   2) N   7                    0.54    1.67    0.038
   1. BD (   1) C   1 - S   4        /100. BD*(   1) C   2 - C   3            0.32    1.23    0.025
   1. BD (   1) C   1 - S   4        /101. BD*(   1) C   2 - H   5            0.30    1.14    0.023
   1. BD (   1) C   1 - S   4        /105. BD*(   1) C   3 - H   6            1.39    1.14    0.050
   2. BD (   2) C   1 - S   4        / 20. LP*(   1) C   3                   49.08    0.14    0.105
   2. BD (   2) C   1 - S   4        / 61. RY*(  11) C   3                    0.26    1.59    0.030
   2. BD (   2) C   1 - S   4        / 62. RY*(  12) C   3                    0.29    1.94    0.035
   2. BD (   2) C   1 - S   4        / 76. RY*(  12) S   4                    0.73    1.06    0.041
   2. BD (   2) C   1 - S   4        / 97. BD*(   2) C   1 - S   4            7.84    0.20    0.052
   3. BD (   1) C   1 - N   7        / 38. RY*(   2) C   2                    1.53    1.89    0.068
   3. BD (   1) C   1 - N   7        / 99. BD*(   1) C   1 - H   8            0.39    1.36    0.029
   3. BD (   1) C   1 - N   7        /101. BD*(   1) C   2 - H   5            1.05    1.36    0.048
   3. BD (   1) C   1 - N   7        /102. BD*(   1) C   2 - N   7            0.31    1.34    0.026
   4. BD (   1) C   1 - H   8        / 65. RY*(   1) S   4                    0.26    1.29    0.023
   4. BD (   1) C   1 - H   8        / 81. RY*(   1) N   7                    0.55    1.39    0.035
   4. BD (   1) C   1 - H   8        / 96. BD*(   1) C   1 - S   4            0.28    0.76    0.019
   4. BD (   1) C   1 - H   8        / 98. BD*(   1) C   1 - N   7            0.49    1.13    0.030
   4. BD (   1) C   1 - H   8        /102. BD*(   1) C   2 - N   7            2.08    1.03    0.058
   5. BD (   1) C   2 - C   3        / 65. RY*(   1) S   4                    0.26    1.50    0.025
   5. BD (   1) C   2 - C   3        / 82. RY*(   2) N   7                    0.75    1.78    0.046
   5. BD (   1) C   2 - C   3        /101. BD*(   1) C   2 - H   5            0.45    1.25    0.030
   5. BD (   1) C   2 - C   3        /105. BD*(   1) C   3 - H   6            0.55    1.25    0.033
   6. BD (   1) C   2 - H   5        / 52. RY*(   2) C   3                    0.39    1.39    0.030
   6. BD (   1) C   2 - H   5        / 81. RY*(   1) N   7                    0.31    1.37    0.026
   6. BD (   1) C   2 - H   5        / 98. BD*(   1) C   1 - N   7            1.32    1.11    0.048
   6. BD (   1) C   2 - H   5        /100. BD*(   1) C   2 - C   3            0.41    1.11    0.027
   6. BD (   1) C   2 - H   5        /104. BD*(   1) C   3 - S   4            1.68    0.75    0.045
   7. BD (   1) C   2 - N   7        / 24. RY*(   2) C   1                    0.49    1.42    0.033
   7. BD (   1) C   2 - N   7        / 25. RY*(   3) C   1                    1.05    2.12    0.060
   7. BD (   1) C   2 - N   7        / 51. RY*(   1) C   3                    0.39    1.77    0.033
   7. BD (   1) C   2 - N   7        / 99. BD*(   1) C   1 - H   8            1.81    1.27    0.061
   7. BD (   1) C   2 - N   7        /105. BD*(   1) C   3 - H   6            1.09    1.27    0.047
   8. BD (   2) C   2 - N   7        / 20. LP*(   1) C   3                   12.52    0.15    0.056
   8. BD (   2) C   2 - N   7        / 23. RY*(   1) C   1                    1.49    1.89    0.075
   8. BD (   2) C   2 - N   7        / 34. RY*(  12) C   1                    0.44    2.05    0.043
   8. BD (   2) C   2 - N   7        / 84. RY*(   4) N   7                    0.29    1.01    0.024
   8. BD (   2) C   2 - N   7        / 97. BD*(   2) C   1 - S   4           49.52    0.21    0.130
   8. BD (   2) C   2 - N   7        /103. BD*(   2) C   2 - N   7            2.11    0.29    0.034
   9. BD (   1) C   3 - S   4        / 37. RY*(   1) C   2                    0.73    1.49    0.042
   9. BD (   1) C   3 - S   4        / 98. BD*(   1) C   1 - N   7            0.61    1.23    0.035
   9. BD (   1) C   3 - S   4        / 99. BD*(   1) C   1 - H   8            1.22    1.15    0.047
   9. BD (   1) C   3 - S   4        /101. BD*(   1) C   2 - H   5            1.99    1.15    0.060
   9. BD (   1) C   3 - S   4        /102. BD*(   1) C   2 - N   7            0.75    1.13    0.037
  10. BD (   1) C   3 - H   6        / 38. RY*(   2) C   2                    0.59    1.59    0.039
  10. BD (   1) C   3 - H   6        / 65. RY*(   1) S   4                    0.31    1.30    0.026
  10. BD (   1) C   3 - H   6        /100. BD*(   1) C   2 - C   3            0.64    1.14    0.034
  10. BD (   1) C   3 - H   6        /102. BD*(   1) C   2 - N   7            1.50    1.04    0.050
  11. CR (   1) C   1                / 82. RY*(   2) N   7                    0.67   11.17    0.109
  11. CR (   1) C   1                / 95. RY*(   1) H   8                    0.30   10.74    0.072
  11. CR (   1) C   1                / 96. BD*(   1) C   1 - S   4            0.43   10.36    0.086
  11. CR (   1) C   1                /102. BD*(   1) C   2 - N   7            0.54   10.63    0.096
  12. CR (   1) C   2                / 52. RY*(   2) C   3                    1.02   10.98    0.134
  12. CR (   1) C   2                / 79. RY*(   1) H   5                    0.25   10.71    0.066
  12. CR (   1) C   2                / 82. RY*(   2) N   7                    0.33   11.13    0.077
  12. CR (   1) C   2                / 98. BD*(   1) C   1 - N   7            0.37   10.69    0.079
  12. CR (   1) C   2                /100. BD*(   1) C   2 - C   3            0.34   10.69    0.076
  12. CR (   1) C   2                /105. BD*(   1) C   3 - H   6            0.38   10.61    0.081
  13. CR (   1) C   3                / 37. RY*(   1) C   2                    0.40   10.97    0.083
  13. CR (   1) C   3                / 38. RY*(   2) C   2                    0.90   11.15    0.126
  13. CR (   1) C   3                / 80. RY*(   1) H   6                    0.36   10.71    0.078
  13. CR (   1) C   3                /100. BD*(   1) C   2 - C   3            0.42   10.71    0.085
  13. CR (   1) C   3                /101. BD*(   1) C   2 - H   5            0.30   10.62    0.072
  13. CR (   1) C   3                /104. BD*(   1) C   3 - S   4            0.35   10.35    0.076
  15. CR (   2) S   4                / 24. RY*(   2) C   1                    0.52    9.47    0.089
  15. CR (   2) S   4                / 25. RY*(   3) C   1                    0.30   10.17    0.069
  15. CR (   2) S   4                / 51. RY*(   1) C   3                    0.70    9.82    0.105
  15. CR (   2) S   4                /105. BD*(   1) C   3 - H   6            0.30    9.32    0.067
  19. CR (   1) N   7                / 24. RY*(   2) C   1                    1.55   14.79    0.191
  19. CR (   1) N   7                / 27. RY*(   5) C   1                    0.38   15.24    0.096
  19. CR (   1) N   7                / 37. RY*(   1) C   2                    0.90   14.98    0.146
  20. LP*(   1) C   3                / 40. RY*(   4) C   2                    0.44    1.60    0.065
  20. LP*(   1) C   3                / 62. RY*(  12) C   3                    0.38    1.81    0.064
  20. LP*(   1) C   3                / 76. RY*(  12) S   4                    0.93    0.92    0.072
  20. LP*(   1) C   3                / 97. BD*(   2) C   1 - S   4            0.37    0.06    0.009
  20. LP*(   1) C   3                /103. BD*(   2) C   2 - N   7           16.81    0.14    0.113
  21. LP (   1) S   4                / 24. RY*(   2) C   1                    0.37    1.31    0.028
  21. LP (   1) S   4                / 25. RY*(   3) C   1                    0.27    2.00    0.029
  21. LP (   1) S   4                / 51. RY*(   1) C   3                    0.65    1.65    0.041
  21. LP (   1) S   4                / 98. BD*(   1) C   1 - N   7            0.94    1.24    0.043
  21. LP (   1) S   4                /100. BD*(   1) C   2 - C   3            0.61    1.24    0.035
  22. LP (   1) N   7                / 24. RY*(   2) C   1                    2.16    1.00    0.060
  22. LP (   1) N   7                / 25. RY*(   3) C   1                    0.44    1.70    0.036
  22. LP (   1) N   7                / 37. RY*(   1) C   2                    1.79    1.19    0.060
  22. LP (   1) N   7                / 83. RY*(   3) N   7                    0.26    1.75    0.028
  22. LP (   1) N   7                / 96. BD*(   1) C   1 - S   4            6.75    0.56    0.078
  22. LP (   1) N   7                / 99. BD*(   1) C   1 - H   8            0.92    0.85    0.036
  22. LP (   1) N   7                /100. BD*(   1) C   2 - C   3            2.87    0.93    0.066
  22. LP (   1) N   7                /101. BD*(   1) C   2 - H   5            0.74    0.85    0.032
  96. BD*(   1) C   1 - S   4        / 65. RY*(   1) S   4                    0.41    0.53    0.098
  96. BD*(   1) C   1 - S   4        / 66. RY*(   2) S   4                    1.27    0.62    0.189
  96. BD*(   1) C   1 - S   4        / 74. RY*(  10) S   4                    0.32    0.15    0.047
  96. BD*(   1) C   1 - S   4        /104. BD*(   1) C   3 - S   4            1.89    0.01    0.029
  97. BD*(   2) C   1 - S   4        / 23. RY*(   1) C   1                    2.01    1.68    0.164
  97. BD*(   2) C   1 - S   4        / 33. RY*(  11) C   1                    0.72    1.16    0.083
  97. BD*(   2) C   1 - S   4        / 34. RY*(  12) C   1                    0.50    1.84    0.087
  97. BD*(   2) C   1 - S   4        / 67. RY*(   3) S   4                    1.33    0.75    0.090
  97. BD*(   2) C   1 - S   4        / 84. RY*(   4) N   7                    0.33    0.80    0.047
  97. BD*(   2) C   1 - S   4        /103. BD*(   2) C   2 - N   7            6.80    0.07    0.061


 Natural Bond Orbitals (Summary):

                                                            Principal Delocalizations
           NBO                        Occupancy    Energy   (geminal,vicinal,remote)
 ====================================================================================
 Molecular unit  1  (C3H3NS)
     1. BD (   1) C   1 - S   4          0.99335    -0.90430  105(v),81(v),82(v),52(v)
                                                    100(v),101(r)
     2. BD (   2) C   1 - S   4          0.71773    -0.51367  20(v),97(g),76(g),62(v)
                                                    61(v)
     3. BD (   1) C   1 - N   7          0.99523    -1.11793  38(v),101(v),99(g),102(g)
     4. BD (   1) C   1 - H   8          0.99283    -0.80486  102(v),81(v),98(g),96(g)
                                                    65(v)
     5. BD (   1) C   2 - C   3          0.99609    -1.01239  82(v),105(g),101(g),65(v)
     6. BD (   1) C   2 - H   5          0.98980    -0.78832  104(v),98(v),100(g),52(v)
                                                    81(v)
     7. BD (   1) C   2 - N   7          0.99155    -1.02930  99(v),105(v),25(v),24(v)
                                                    51(v)
     8. BD (   2) C   2 - N   7          0.79486    -0.52469  97(v),20(v),103(g),23(v)
                                                    34(v),84(g)
     9. BD (   1) C   3 - S   4          0.99016    -0.90975  101(v),99(v),102(v),37(v)
                                                    98(v)
    10. BD (   1) C   3 - H   6          0.99327    -0.81669  102(v),100(g),38(v),65(v)
    11. CR (   1) C   1                  0.99970   -10.40287  82(v),102(v),96(g),95(v)
    12. CR (   1) C   2                  0.99956   -10.36951  52(v),105(v),98(v),100(g)
                                                    82(v),79(v)
    13. CR (   1) C   3                  0.99958   -10.38552  38(v),100(g),37(v),80(v)
                                                    104(g),101(v)
    14. CR (   1) S   4                  1.00000   -88.07313   
    15. CR (   2) S   4                  0.99971    -9.07905  51(v),24(v),105(v),25(v)
    16. CR (   3) S   4                  0.99993    -6.19159   
    17. CR (   4) S   4                  0.99994    -6.19511   
    18. CR (   5) S   4                  0.99991    -6.19058   
    19. CR (   1) N   7                  0.99972   -14.39659  24(v),37(v),27(v)
    20. LP*(   1) C   3                  0.26370    -0.37461  103(v),76(v),40(v),62(g)
    21. LP (   1) S   4                  0.99295    -0.91395  98(v),51(v),100(v),24(v)
                                                    25(v)
    22. LP (   1) N   7                  0.94922    -0.60729  96(v),100(v),24(v),37(v)
                                                    99(v),101(v),25(v),83(g)
    23. RY*(   1) C   1                  0.00469     1.36285   
    24. RY*(   2) C   1                  0.00395     0.39429   
    25. RY*(   3) C   1                  0.00221     1.08949   
    26. RY*(   4) C   1                  0.00038     0.93530   
    27. RY*(   5) C   1                  0.00033     0.84288   
    28. RY*(   6) C   1                  0.00004     0.76550   
    29. RY*(   7) C   1                  0.00001     0.70788   
    30. RY*(   8) C   1                  0.00001     0.65305   
    31. RY*(   9) C   1                  0.00001     1.28380   
    32. RY*(  10) C   1                  0.00001     1.90994   
    33. RY*(  11) C   1                  0.00000     0.84350   
    34. RY*(  12) C   1                  0.00000     1.52906   
    35. RY*(  13) C   1                  0.00001     3.67582   
    36. RY*(  14) C   1                  0.00000    -0.03486   
    37. RY*(   1) C   2                  0.00355     0.58231   
    38. RY*(   2) C   2                  0.00254     0.76899   
    39. RY*(   3) C   2                  0.00045     0.93977   
    40. RY*(   4) C   2                  0.00028     1.22496   
    41. RY*(   5) C   2                  0.00018     0.61289   
    42. RY*(   6) C   2                  0.00009     1.74017   
    43. RY*(   7) C   2                  0.00004     2.83054   
    44. RY*(   8) C   2                  0.00000     1.63861   
    45. RY*(   9) C   2                  0.00000     0.08183   
    46. RY*(  10) C   2                  0.00001     0.83747   
    47. RY*(  11) C   2                  0.00000     1.10556   
    48. RY*(  12) C   2                  0.00000     1.38616   
    49. RY*(  13) C   2                  0.00000     0.58830   
    50. RY*(  14) C   2                  0.00000     2.15065   
    51. RY*(   1) C   3                  0.00170     0.73834   
    52. RY*(   2) C   3                  0.00107     0.60652   
    53. RY*(   3) C   3                  0.00035     0.57435   
    54. RY*(   4) C   3                  0.00026     0.85648   
    55. RY*(   5) C   3                  0.00012     1.14460   
    56. RY*(   6) C   3                  0.00004     1.04180   
    57. RY*(   7) C   3                  0.00001     0.79757   
    58. RY*(   8) C   3                  0.00002     0.69999   
    59. RY*(   9) C   3                  0.00001     1.82541   
    60. RY*(  10) C   3                  0.00001     1.87957   
    61. RY*(  11) C   3                  0.00000     1.07557   
    62. RY*(  12) C   3                  0.00000     1.43125   
    63. RY*(  13) C   3                  0.00000     0.11387   
    64. RY*(  14) C   3                  0.00000     2.77775   
    65. RY*(   1) S   4                  0.00164     0.48574   
    66. RY*(   2) S   4                  0.00089     0.57347   
    67. RY*(   3) S   4                  0.00075     0.43332   
    68. RY*(   4) S   4                  0.00034     0.49162   
    69. RY*(   5) S   4                  0.00016     0.25703   
    70. RY*(   6) S   4                  0.00013     0.14422   
    71. RY*(   7) S   4                  0.00005     0.04321   
    72. RY*(   8) S   4                  0.00000     0.39361   
    73. RY*(   9) S   4                  0.00000     0.03401   
    74. RY*(  10) S   4                  0.00001     0.10634   
    75. RY*(  11) S   4                  0.00000     3.62791   
    76. RY*(  12) S   4                  0.00000     0.54240   
    77. RY*(  13) S   4                  0.00001     0.67390   
    78. RY*(  14) S   4                  0.00000     0.54476   
    79. RY*(   1) H   5                  0.00019     0.33766   
    80. RY*(   1) H   6                  0.00032     0.32009   
    81. RY*(   1) N   7                  0.00237     0.58466   
    82. RY*(   2) N   7                  0.00124     0.76439   
    83. RY*(   3) N   7                  0.00019     1.14262   
    84. RY*(   4) N   7                  0.00019     0.48918   
    85. RY*(   5) N   7                  0.00010     1.58389   
    86. RY*(   6) N   7                  0.00007     0.86455   
    87. RY*(   7) N   7                  0.00002     1.57068   
    88. RY*(   8) N   7                  0.00000     3.08629   
    89. RY*(   9) N   7                  0.00000     0.43275   
    90. RY*(  10) N   7                  0.00000     1.49148   
    91. RY*(  11) N   7                  0.00000     1.50062   
    92. RY*(  12) N   7                  0.00000     1.43617   
    93. RY*(  13) N   7                  0.00000     0.48401   
    94. RY*(  14) N   7                  0.00001     1.86656   
    95. RY*(   1) H   8                  0.00021     0.33781   
    96. BD*(   1) C   1 - S   4          0.03437    -0.04555   
    97. BD*(   2) C   1 - S   4          0.19449    -0.31378  103(v),23(g),67(g),33(g)
                                                    34(g),84(v)
    98. BD*(   1) C   1 - N   7          0.00732     0.32334   
    99. BD*(   1) C   1 - H   8          0.00842     0.23826   
   100. BD*(   1) C   2 - C   3          0.01236     0.32385   
   101. BD*(   1) C   2 - H   5          0.00843     0.23873   
   102. BD*(   1) C   2 - N   7          0.00782     0.22258   
   103. BD*(   2) C   2 - N   7          0.02314    -0.23902   
   104. BD*(   1) C   3 - S   4          0.00864    -0.03395   
   105. BD*(   1) C   3 - H   6          0.00497     0.23747   
       -------------------------------
              Total Lewis   20.39509  ( 97.1195%)
        Valence non-Lewis    0.57365  (  2.7317%)
        Rydberg non-Lewis    0.03126  (  0.1488%)
       -------------------------------
            Total unit  1   21.00000  (100.0000%)
           Charge unit  1    1.00000
 1\1\GINC-LOCALHOST\SP\UB3LYP\6-31+G(d)\C3H3N1S1(1+,2)\PVBHARATAM\14-Ma
 r-2001\0\\# b3lyp/6-31+g(d) pop=nbo\\TZ+1\\1,2\C,0,0.028965,-1.20846,0
 .000719\C,0,1.292481,0.595784,0.000343\C,0,0.077181,1.223599,0.00003\S
 ,0,-1.191905,0.042668,-0.000128\H,0,2.252746,1.098514,0.000422\H,0,-0.
 135885,2.284053,-0.000105\N,0,1.258973,-0.782207,-0.000702\H,0,-0.2509
 52,-2.255346,0.000096\\Version=EM64L-G09RevB.01\State=2-A\HF=-568.7078
 371\S2=0.761315\S2-1=0.\S2A=0.750067\RMSD=8.557e-09\Dipole=-0.1927302,
 0.6992268,0.0005868\Quadrupole=-0.4234919,4.8569989,-4.4335069,3.87666
 82,0.0030274,-0.0017302\PG=C01 [X(C3H3N1S1)]\\@


 BLACK HOLES SUCK.
 Job cpu time:  0 days  0 hours  1 minutes 11.8 seconds.
 File lengths (MBytes):  RWF=     10 Int=      0 D2E=      0 Chk=      2 Scr=      1
 Normal termination of Gaussian 09 at Wed Mar 14 22:07:52 2001.
