 Entering Gaussian System, Link 0=g09
 Input=TZ-1.gjf
 Output=TZ-1.log
 Initial command:
 /home/pvbharatam/guass/g09/l1.exe /home/pvbharatam/GAUSS_SCRDIR/Gau-787.inp -scrdir=/home/pvbharatam/GAUSS_SCRDIR/
 Entering Link 1 = /home/pvbharatam/guass/g09/l1.exe PID=       788.
  
 Copyright (c) 1988,1990,1992,1993,1995,1998,2003,2009,2010,
            Gaussian, Inc.  All Rights Reserved.
  
 This is part of the Gaussian(R) 09 program.  It is based on
 the Gaussian(R) 03 system (copyright 2003, Gaussian, Inc.),
 the Gaussian(R) 98 system (copyright 1998, Gaussian, Inc.),
 the Gaussian(R) 94 system (copyright 1995, Gaussian, Inc.),
 the Gaussian 92(TM) system (copyright 1992, Gaussian, Inc.),
 the Gaussian 90(TM) system (copyright 1990, Gaussian, Inc.),
 the Gaussian 88(TM) system (copyright 1988, Gaussian, Inc.),
 the Gaussian 86(TM) system (copyright 1986, Carnegie Mellon
 University), and the Gaussian 82(TM) system (copyright 1983,
 Carnegie Mellon University). Gaussian is a federally registered
 trademark of Gaussian, Inc.
  
 This software contains proprietary and confidential information,
 including trade secrets, belonging to Gaussian, Inc.
  
 This software is provided under written license and may be
 used, copied, transmitted, or stored only in accord with that
 written license.
  
 The following legend is applicable only to US Government
 contracts under FAR:
  
                    RESTRICTED RIGHTS LEGEND
  
 Use, reproduction and disclosure by the US Government is
 subject to restrictions as set forth in subparagraphs (a)
 and (c) of the Commercial Computer Software - Restricted
 Rights clause in FAR 52.227-19.
  
 Gaussian, Inc.
 340 Quinnipiac St., Bldg. 40, Wallingford CT 06492
  
  
 ---------------------------------------------------------------
 Warning -- This program may not be used in any manner that
 competes with the business of Gaussian, Inc. or will provide
 assistance to any competitor of Gaussian, Inc.  The licensee
 of this program is prohibited from giving any competitor of
 Gaussian, Inc. access to this program.  By using this program,
 the user acknowledges that Gaussian, Inc. is engaged in the
 business of creating and licensing software in the field of
 computational chemistry and represents and warrants to the
 licensee that it is not a competitor of Gaussian, Inc. and that
 it will not use this program in any manner prohibited above.
 ---------------------------------------------------------------
  

 Cite this work as:
 Gaussian 09, Revision B.01,
 M. J. Frisch, G. W. Trucks, H. B. Schlegel, G. E. Scuseria, 
 M. A. Robb, J. R. Cheeseman, G. Scalmani, V. Barone, B. Mennucci, 
 G. A. Petersson, H. Nakatsuji, M. Caricato, X. Li, H. P. Hratchian, 
 A. F. Izmaylov, J. Bloino, G. Zheng, J. L. Sonnenberg, M. Hada, 
 M. Ehara, K. Toyota, R. Fukuda, J. Hasegawa, M. Ishida, T. Nakajima, 
 Y. Honda, O. Kitao, H. Nakai, T. Vreven, J. A. Montgomery, Jr., 
 J. E. Peralta, F. Ogliaro, M. Bearpark, J. J. Heyd, E. Brothers, 
 K. N. Kudin, V. N. Staroverov, T. Keith, R. Kobayashi, J. Normand, 
 K. Raghavachari, A. Rendell, J. C. Burant, S. S. Iyengar, J. Tomasi, 
 M. Cossi, N. Rega, J. M. Millam, M. Klene, J. E. Knox, J. B. Cross, 
 V. Bakken, C. Adamo, J. Jaramillo, R. Gomperts, R. E. Stratmann, 
 O. Yazyev, A. J. Austin, R. Cammi, C. Pomelli, J. W. Ochterski, 
 R. L. Martin, K. Morokuma, V. G. Zakrzewski, G. A. Voth, 
 P. Salvador, J. J. Dannenberg, S. Dapprich, A. D. Daniels, 
 O. Farkas, J. B. Foresman, J. V. Ortiz, J. Cioslowski, 
 and D. J. Fox, Gaussian, Inc., Wallingford CT, 2010.
 
 ******************************************
 Gaussian 09:  EM64L-G09RevB.01 12-Aug-2010
                14-Mar-2001 
 ******************************************
 %nprocshared=4
 Will use up to    4 processors via shared memory.
 %mem=4GB
 %chk=TZ-1.chk
 -------------------------
 # b3lyp/6-31+g(d) pop=nbo
 -------------------------
 1/38=1/1;
 2/12=2,17=6,18=5,40=1/2;
 3/5=1,6=6,7=11,11=2,16=1,25=1,30=1,74=-5/1,2,3;
 4//1;
 5/5=2,38=5/2;
 6/7=2,8=2,9=2,10=2,28=1/1,7;
 99/5=1,9=1/99;
 ----
 TZ-1
 ----
 Symbolic Z-matrix:
 Charge = -1 Multiplicity = 2
 C                     0.02897  -1.20846   0.00072 
 C                     1.29248   0.59578   0.00034 
 C                     0.07718   1.2236    0.00003 
 S                    -1.19191   0.04267  -0.00013 
 H                     2.25275   1.09851   0.00042 
 H                    -0.13589   2.28405  -0.00011 
 N                     1.25897  -0.78221  -0.0007 
 H                    -0.25095  -2.25535   0.0001 
 
                          Input orientation:                          
 ---------------------------------------------------------------------
 Center     Atomic      Atomic             Coordinates (Angstroms)
 Number     Number       Type             X           Y           Z
 ---------------------------------------------------------------------
      1          6           0        0.028965   -1.208460    0.000719
      2          6           0        1.292481    0.595784    0.000343
      3          6           0        0.077181    1.223599    0.000030
      4         16           0       -1.191905    0.042668   -0.000128
      5          1           0        2.252746    1.098514    0.000422
      6          1           0       -0.135885    2.284053   -0.000105
      7          7           0        1.258973   -0.782207   -0.000702
      8          1           0       -0.250952   -2.255346    0.000096
 ---------------------------------------------------------------------
                    Distance matrix (angstroms):
                    1          2          3          4          5
     1  C    0.000000
     2  C    2.202673   0.000000
     3  C    2.432537   1.367884   0.000000
     4  S    1.748098   2.545213   1.733545   0.000000
     5  H    3.204268   1.083903   2.179158   3.602837   0.000000
     6  H    3.496401   2.211443   1.081647   2.477698   2.666657
     7  N    1.301773   1.378399   2.328066   2.585966   2.127134
     8  H    1.083662   3.242087   3.494385   2.483196   4.185317
                    6          7          8
     6  H    0.000000
     7  N    3.368617   0.000000
     8  H    4.540857   2.109505   0.000000
 Stoichiometry    C3H3NS(1-,2)
 Framework group  C1[X(C3H3NS)]
 Deg. of freedom    18
 Full point group                 C1      NOp   1
 Largest Abelian subgroup         C1      NOp   1
 Largest concise Abelian subgroup C1      NOp   1
                         Standard orientation:                         
 ---------------------------------------------------------------------
 Center     Atomic      Atomic             Coordinates (Angstroms)
 Number     Number       Type             X           Y           Z
 ---------------------------------------------------------------------
      1          6           0        0.028965   -1.208460    0.000719
      2          6           0        1.292481    0.595784    0.000343
      3          6           0        0.077181    1.223599    0.000030
      4         16           0       -1.191905    0.042668   -0.000128
      5          1           0        2.252746    1.098515    0.000422
      6          1           0       -0.135886    2.284053   -0.000105
      7          7           0        1.258973   -0.782207   -0.000702
      8          1           0       -0.250951   -2.255346    0.000096
 ---------------------------------------------------------------------
 Rotational constants (GHZ):      8.4601617      5.4267822      3.3060884
 Standard basis: 6-31+G(d) (6D, 7F)
 There are   105 symmetry adapted basis functions of A   symmetry.
 Integral buffers will be    131072 words long.
 Raffenetti 2 integral format.
 Two-electron integral symmetry is turned on.
   105 basis functions,   196 primitive gaussians,   105 cartesian basis functions
    23 alpha electrons       22 beta electrons
       nuclear repulsion energy       204.0847674214 Hartrees.
 NAtoms=    8 NActive=    8 NUniq=    8 SFac= 1.00D+00 NAtFMM=   50 NAOKFM=F Big=F
 One-electron integrals computed using PRISM.
 NBasis=   105 RedAO= T  NBF=   105
 NBsUse=   105 1.00D-06 NBFU=   105
 Harris functional with IExCor=  402 diagonalized for initial guess.
 ExpMin= 4.05D-02 ExpMax= 2.19D+04 ExpMxC= 3.30D+03 IAcc=2 IRadAn=         0 AccDes= 0.00D+00
 HarFok:  IExCor=  402 AccDes= 0.00D+00 IRadAn=         0 IDoV= 1
 ScaDFX=  1.000000  1.000000  1.000000  1.000000
 FoFCou: FMM=F IPFlag=           0 FMFlag=      100000 FMFlg1=           0
         NFxFlg=           0 DoJE=T BraDBF=F KetDBF=T FulRan=T
         Omega=  0.000000  0.000000  1.000000  0.000000  0.000000 ICntrl=     500 IOpCl=  0
         NMat0=    1 NMatS0=    1 NMatT0=    0 NMatD0=    1 NMtDS0=    0 NMtDT0=    0
         I1Cent=           4 NGrid=           0.
 Petite list used in FoFCou.
 Initial guess orbital symmetries:
 Alpha Orbitals:
       Occupied  (A) (A) (A) (A) (A) (A) (A) (A) (A) (A) (A) (A)
                 (A) (A) (A) (A) (A) (A) (A) (A) (A) (A) (A)
       Virtual   (A) (A) (A) (A) (A) (A) (A) (A) (A) (A) (A) (A)
                 (A) (A) (A) (A) (A) (A) (A) (A) (A) (A) (A) (A)
                 (A) (A) (A) (A) (A) (A) (A) (A) (A) (A) (A) (A)
                 (A) (A) (A) (A) (A) (A) (A) (A) (A) (A) (A) (A)
                 (A) (A) (A) (A) (A) (A) (A) (A) (A) (A) (A) (A)
                 (A) (A) (A) (A) (A) (A) (A) (A) (A) (A) (A) (A)
                 (A) (A) (A) (A) (A) (A) (A) (A) (A) (A)
 Beta  Orbitals:
       Occupied  (A) (A) (A) (A) (A) (A) (A) (A) (A) (A) (A) (A)
                 (A) (A) (A) (A) (A) (A) (A) (A) (A) (A)
       Virtual   (A) (A) (A) (A) (A) (A) (A) (A) (A) (A) (A) (A)
                 (A) (A) (A) (A) (A) (A) (A) (A) (A) (A) (A) (A)
                 (A) (A) (A) (A) (A) (A) (A) (A) (A) (A) (A) (A)
                 (A) (A) (A) (A) (A) (A) (A) (A) (A) (A) (A) (A)
                 (A) (A) (A) (A) (A) (A) (A) (A) (A) (A) (A) (A)
                 (A) (A) (A) (A) (A) (A) (A) (A) (A) (A) (A) (A)
                 (A) (A) (A) (A) (A) (A) (A) (A) (A) (A) (A)
 The electronic state of the initial guess is 2-A.
 Initial guess <Sx>= 0.0000 <Sy>= 0.0000 <Sz>= 0.5000 <S**2>= 0.7500 S= 0.5000
 Requested convergence on RMS density matrix=1.00D-08 within 128 cycles.
 Requested convergence on MAX density matrix=1.00D-06.
 Requested convergence on             energy=1.00D-06.
 No special actions if energy rises.
 Keep R1 and R2 ints in memory in canonical form, NReq=32021475.
 SCF Done:  E(UB3LYP) =  -569.020893557     A.U. after   32 cycles
             Convg  =    0.2287D-08             -V/T =  2.0047
 <Sx>= 0.0000 <Sy>= 0.0000 <Sz>= 0.5000 <S**2>= 0.7589 S= 0.5044
 <L.S>= 0.000000000000E+00
 Annihilation of the first spin contaminant:
 S**2 before annihilation     0.7589,   after     0.7500

 **********************************************************************

            Population analysis using the SCF density.

 **********************************************************************

 Orbital symmetries:
 Alpha Orbitals:
       Occupied  (A) (A) (A) (A) (A) (A) (A) (A) (A) (A) (A) (A)
                 (A) (A) (A) (A) (A) (A) (A) (A) (A) (A) (A)
       Virtual   (A) (A) (A) (A) (A) (A) (A) (A) (A) (A) (A) (A)
                 (A) (A) (A) (A) (A) (A) (A) (A) (A) (A) (A) (A)
                 (A) (A) (A) (A) (A) (A) (A) (A) (A) (A) (A) (A)
                 (A) (A) (A) (A) (A) (A) (A) (A) (A) (A) (A) (A)
                 (A) (A) (A) (A) (A) (A) (A) (A) (A) (A) (A) (A)
                 (A) (A) (A) (A) (A) (A) (A) (A) (A) (A) (A) (A)
                 (A) (A) (A) (A) (A) (A) (A) (A) (A) (A)
 Beta  Orbitals:
       Occupied  (A) (A) (A) (A) (A) (A) (A) (A) (A) (A) (A) (A)
                 (A) (A) (A) (A) (A) (A) (A) (A) (A) (A)
       Virtual   (A) (A) (A) (A) (A) (A) (A) (A) (A) (A) (A) (A)
                 (A) (A) (A) (A) (A) (A) (A) (A) (A) (A) (A) (A)
                 (A) (A) (A) (A) (A) (A) (A) (A) (A) (A) (A) (A)
                 (A) (A) (A) (A) (A) (A) (A) (A) (A) (A) (A) (A)
                 (A) (A) (A) (A) (A) (A) (A) (A) (A) (A) (A) (A)
                 (A) (A) (A) (A) (A) (A) (A) (A) (A) (A) (A) (A)
                 (A) (A) (A) (A) (A) (A) (A) (A) (A) (A) (A)
 The electronic state is 2-A.
 Alpha  occ. eigenvalues --  -88.70484 -14.12973 -10.01876 -10.01755 -10.00394
 Alpha  occ. eigenvalues --   -7.76593  -5.72993  -5.72670  -5.72337  -0.75233
 Alpha  occ. eigenvalues --   -0.59211  -0.53788  -0.39269  -0.36923  -0.30713
 Alpha  occ. eigenvalues --   -0.22919  -0.20969  -0.20907  -0.16822  -0.09045
 Alpha  occ. eigenvalues --   -0.07729  -0.06071   0.10867
 Alpha virt. eigenvalues --    0.14243   0.15006   0.15942   0.17098   0.18654
 Alpha virt. eigenvalues --    0.18773   0.20176   0.21299   0.22236   0.22531
 Alpha virt. eigenvalues --    0.23218   0.24859   0.25832   0.27183   0.27653
 Alpha virt. eigenvalues --    0.27728   0.30470   0.32862   0.34235   0.35980
 Alpha virt. eigenvalues --    0.37007   0.38311   0.41461   0.41772   0.44016
 Alpha virt. eigenvalues --    0.46100   0.50219   0.55668   0.64579   0.67420
 Alpha virt. eigenvalues --    0.67875   0.70768   0.73113   0.79113   0.81783
 Alpha virt. eigenvalues --    0.84256   0.85918   0.89873   0.98858   1.00867
 Alpha virt. eigenvalues --    1.01400   1.01762   1.07634   1.10174   1.15479
 Alpha virt. eigenvalues --    1.16697   1.18559   1.20200   1.22262   1.23151
 Alpha virt. eigenvalues --    1.25925   1.27606   1.32798   1.35349   1.40990
 Alpha virt. eigenvalues --    1.56238   1.57862   1.63648   1.70191   1.72352
 Alpha virt. eigenvalues --    1.91606   1.96329   2.05136   2.11739   2.20590
 Alpha virt. eigenvalues --    2.26326   2.42391   2.45380   2.50899   2.51888
 Alpha virt. eigenvalues --    2.57041   2.71061   2.72142   2.86814   2.88900
 Alpha virt. eigenvalues --    3.15039   3.20814   4.14946   4.31887   4.40338
 Alpha virt. eigenvalues --    4.53476   4.58572
  Beta  occ. eigenvalues --  -88.70406 -14.12864 -10.01848 -10.01135  -9.99939
  Beta  occ. eigenvalues --   -7.76516  -5.72967  -5.72642  -5.72048  -0.74677
  Beta  occ. eigenvalues --   -0.58617  -0.53009  -0.38345  -0.36348  -0.30369
  Beta  occ. eigenvalues --   -0.22606  -0.20631  -0.19135  -0.16287  -0.07486
  Beta  occ. eigenvalues --   -0.07329  -0.03392
  Beta virt. eigenvalues --    0.14240   0.15010   0.15869   0.17062   0.17876
  Beta virt. eigenvalues --    0.18755   0.18842   0.20470   0.21247   0.22412
  Beta virt. eigenvalues --    0.22534   0.23099   0.26052   0.26764   0.27289
  Beta virt. eigenvalues --    0.27721   0.28888   0.30523   0.33277   0.34581
  Beta virt. eigenvalues --    0.36111   0.37119   0.38432   0.41638   0.42095
  Beta virt. eigenvalues --    0.44286   0.46272   0.50717   0.55832   0.64927
  Beta virt. eigenvalues --    0.67829   0.68396   0.71082   0.73422   0.79364
  Beta virt. eigenvalues --    0.83902   0.85965   0.86128   0.90819   0.99342
  Beta virt. eigenvalues --    1.01962   1.02088   1.02867   1.07844   1.10599
  Beta virt. eigenvalues --    1.15850   1.16965   1.19119   1.20418   1.22599
  Beta virt. eigenvalues --    1.23636   1.26234   1.28218   1.33482   1.35718
  Beta virt. eigenvalues --    1.41416   1.57515   1.58298   1.64260   1.70398
  Beta virt. eigenvalues --    1.73879   1.93768   1.96636   2.07284   2.13068
  Beta virt. eigenvalues --    2.20951   2.26626   2.43739   2.46666   2.52430
  Beta virt. eigenvalues --    2.53104   2.57955   2.71394   2.73439   2.87404
  Beta virt. eigenvalues --    2.89418   3.15241   3.21007   4.15306   4.32198
  Beta virt. eigenvalues --    4.41297   4.54654   4.58984
          Condensed to atoms (all electrons):
              1          2          3          4          5          6
     1  C    6.880057  -0.427354   0.396907  -0.844119   0.026841   0.012208
     2  C   -0.427354   5.763059  -0.373335   0.323782   0.442968  -0.015816
     3  C    0.396907  -0.373335   7.194937  -0.792875  -0.137569   0.329366
     4  S   -0.844119   0.323782  -0.792875  17.383058   0.006631  -0.029301
     5  H    0.026841   0.442968  -0.137569   0.006631   0.621347  -0.001545
     6  H    0.012208  -0.015816   0.329366  -0.029301  -0.001545   0.543012
     7  N   -0.038588   0.507740  -0.216263   0.144755  -0.078426   0.010849
     8  H    0.408564   0.010510   0.004912  -0.087830  -0.000106  -0.000066
              7          8
     1  C   -0.038588   0.408564
     2  C    0.507740   0.010510
     3  C   -0.216263   0.004912
     4  S    0.144755  -0.087830
     5  H   -0.078426  -0.000106
     6  H    0.010849  -0.000066
     7  N    6.993040  -0.061999
     8  H   -0.061999   0.579808
 Mulliken atomic charges:
              1
     1  C   -0.414517
     2  C   -0.231553
     3  C   -0.406080
     4  S   -0.104101
     5  H    0.119859
     6  H    0.151291
     7  N   -0.261107
     8  H    0.146208
 Sum of Mulliken atomic charges =  -1.00000
 Mulliken charges with hydrogens summed into heavy atoms:
              1
     1  C   -0.268309
     2  C   -0.111694
     3  C   -0.254789
     4  S   -0.104101
     7  N   -0.261107
 Sum of Mulliken charges with hydrogens summed into heavy atoms =  -1.00000
          Atomic-Atomic Spin Densities.
              1          2          3          4          5          6
     1  C    1.662591  -0.423185   0.642259  -0.996457   0.001001   0.000882
     2  C   -0.423185   0.409814  -0.626209   0.416434   0.002812  -0.009507
     3  C    0.642259  -0.626209   1.515424  -0.994702  -0.000301   0.013147
     4  S   -0.996457   0.416434  -0.994702   1.570976  -0.001106  -0.004657
     5  H    0.001001   0.002812  -0.000301  -0.001106  -0.005354   0.000171
     6  H    0.000882  -0.009507   0.013147  -0.004657   0.000171  -0.020786
     7  N   -0.418678   0.235731  -0.201811   0.200114  -0.000997  -0.000454
     8  H    0.005832  -0.004329   0.002724  -0.003491  -0.000002   0.000003
              7          8
     1  C   -0.418678   0.005832
     2  C    0.235731  -0.004329
     3  C   -0.201811   0.002724
     4  S    0.200114  -0.003491
     5  H   -0.000997  -0.000002
     6  H   -0.000454   0.000003
     7  N    0.226900  -0.000717
     8  H   -0.000717  -0.028579
 Mulliken atomic spin densities:
              1
     1  C    0.474245
     2  C    0.001561
     3  C    0.350531
     4  S    0.187111
     5  H   -0.003775
     6  H   -0.021201
     7  N    0.040088
     8  H   -0.028560
 Sum of Mulliken atomic spin densities =   1.00000
 Electronic spatial extent (au):  <R**2>=            409.4211
 Charge=             -1.0000 electrons
 Dipole moment (field-independent basis, Debye):
    X=             -1.0350    Y=              1.2796    Z=             -0.0009  Tot=              1.6458
 Quadrupole moment (field-independent basis, Debye-Ang):
   XX=            -51.7245   YY=            -44.8141   ZZ=            -47.1094
   XY=              3.7814   XZ=              0.0556   YZ=              0.0005
 Traceless Quadrupole moment (field-independent basis, Debye-Ang):
   XX=             -3.8419   YY=              3.0686   ZZ=              0.7733
   XY=              3.7814   XZ=              0.0556   YZ=              0.0005
 Octapole moment (field-independent basis, Debye-Ang**2):
  XXX=              0.0373  YYY=              1.7413  ZZZ=             -0.0261  XYY=             -7.0926
  XXY=              6.5411  XXZ=             -0.4138  XZZ=              1.5900  YZZ=             -0.5366
  YYZ=              0.4509  XYZ=             -0.0023
 Hexadecapole moment (field-independent basis, Debye-Ang**3):
 XXXX=           -382.2567 YYYY=           -272.3982 ZZZZ=            -89.0928 XXXY=             17.2213
 XXXZ=              0.3877 YYYX=              5.4834 YYYZ=              0.1676 ZZZX=              0.4252
 ZZZY=             -0.0525 XXYY=           -105.5980 XXZZ=            -86.4942 YYZZ=            -73.0110
 XXYZ=             -0.1058 YYXZ=              0.1442 ZZXY=             -0.3282
 N-N= 2.040847674214D+02 E-N=-2.633134512901D+03  KE= 8.488057167123D+02
                          Isotropic Fermi Contact Couplings
        Atom                 a.u.       MegaHertz       Gauss      10(-4) cm-1
     1  C(13)              0.04650      52.26971      18.65113      17.43530
     2  C(13)             -0.00230      -2.58678      -0.92303      -0.86286
     3  C(13)              0.03418      38.42504      13.71101      12.81721
     4  S(33)              0.01177       4.04341       1.44279       1.34874
     5  H(1)              -0.00116      -5.16421      -1.84272      -1.72260
     6  H(1)              -0.00574     -25.66162      -9.15670      -8.55980
     7  N(14)              0.00688       2.22382       0.79352       0.74179
     8  H(1)              -0.00805     -35.97006     -12.83501     -11.99832
 --------------------------------------------------------
       Center         ----  Spin Dipole Couplings  ----
                      3XX-RR        3YY-RR        3ZZ-RR
 --------------------------------------------------------
     1   Atom       -0.250634     -0.240961      0.491595
     2   Atom       -0.016420     -0.014077      0.030497
     3   Atom       -0.183986     -0.173471      0.357458
     4   Atom       -0.369663     -0.372011      0.741674
     5   Atom        0.003590      0.000375     -0.003965
     6   Atom       -0.024423      0.024943     -0.000521
     7   Atom       -0.076815     -0.075424      0.152239
     8   Atom       -0.030897      0.030871      0.000026
 --------------------------------------------------------
                        XY            XZ            YZ
 --------------------------------------------------------
     1   Atom       -0.002232     -0.000258     -0.002455
     2   Atom       -0.002731     -0.001267     -0.000626
     3   Atom        0.001910     -0.000901      0.004017
     4   Atom        0.007256      0.006543     -0.000830
     5   Atom        0.006707      0.000205      0.000073
     6   Atom       -0.008060      0.000081     -0.000645
     7   Atom        0.004572      0.000029     -0.000549
     8   Atom        0.015180      0.000086      0.000477
 --------------------------------------------------------


 ---------------------------------------------------------------------------------
              Anisotropic Spin Dipole Couplings in Principal Axis System
 ---------------------------------------------------------------------------------

       Atom             a.u.   MegaHertz   Gauss  10(-4) cm-1        Axes

              Baa    -0.2511   -33.699   -12.025   -11.241  0.9767  0.2147  0.0010
     1 C(13)  Bbb    -0.2405   -32.270   -11.515   -10.764 -0.2147  0.9767  0.0032
              Bcc     0.4916    65.968    23.539    22.005 -0.0003 -0.0034  1.0000
 
              Baa    -0.0183    -2.450    -0.874    -0.817  0.8350  0.5495  0.0288
     2 C(13)  Bbb    -0.0123    -1.647    -0.588    -0.550 -0.5496  0.8354 -0.0041
              Bcc     0.0305     4.098     1.462     1.367 -0.0263 -0.0124  0.9996
 
              Baa    -0.1843   -24.735    -8.826    -8.251  0.9847 -0.1743  0.0029
     3 C(13)  Bbb    -0.1732   -23.237    -8.291    -7.751  0.1743  0.9847 -0.0072
              Bcc     0.3575    47.972    17.117    16.002 -0.0016  0.0076  1.0000
 
              Baa    -0.3782   -15.506    -5.533    -5.172 -0.6492  0.7606  0.0044
     4 S(33)  Bbb    -0.3635   -14.903    -5.318    -4.971  0.7606  0.6492 -0.0040
              Bcc     0.7417    30.410    10.851    10.144  0.0059 -0.0007  1.0000
 
              Baa    -0.0049    -2.625    -0.937    -0.875 -0.6185  0.7825  0.0725
     5 H(1)   Bbb    -0.0040    -2.115    -0.755    -0.705  0.0323 -0.0668  0.9972
              Bcc     0.0089     4.739     1.691     1.581  0.7852  0.6191  0.0161
 
              Baa    -0.0257   -13.715    -4.894    -4.575  0.9876  0.1572  0.0008
     6 H(1)   Bbb    -0.0005    -0.286    -0.102    -0.095 -0.0046  0.0238  0.9997
              Bcc     0.0262    14.001     4.996     4.670 -0.1571  0.9873 -0.0243
 
              Baa    -0.0807    -3.114    -1.111    -1.039  0.7584 -0.6518 -0.0016
     7 N(14)  Bbb    -0.0715    -2.757    -0.984    -0.920  0.6518  0.7584  0.0018
              Bcc     0.1522     5.872     2.095     1.959  0.0001 -0.0024  1.0000
 
              Baa    -0.0344   -18.368    -6.554    -6.127  0.9740 -0.2264  0.0007
     8 H(1)   Bbb     0.0000     0.010     0.004     0.003 -0.0039 -0.0136  0.9999
              Bcc     0.0344    18.358     6.551     6.123  0.2264  0.9739  0.0141
 

 ---------------------------------------------------------------------------------

 ******************************Gaussian NBO Version 3.1******************************
             N A T U R A L   A T O M I C   O R B I T A L   A N D
          N A T U R A L   B O N D   O R B I T A L   A N A L Y S I S
 ******************************Gaussian NBO Version 3.1******************************
       /RESON  / : Allow strongly delocalized NBO set

 Analyzing the SCF density

 Job title: TZ-1                                                            

 Storage needed:     33657 in NPA,     44502 in NBO ( 536870528 available)


 NATURAL POPULATIONS:  Natural atomic orbital occupancies 
                                                          
   NAO  Atom  No  lang   Type(AO)    Occupancy
 --------------------------------------------
     1    C    1  S      Cor( 1S)     1.99942
     2    C    1  S      Val( 2S)     0.99341
     3    C    1  S      Ryd( 3S)     0.00389
     4    C    1  S      Ryd( 4S)     0.00038
     5    C    1  S      Ryd( 5S)     0.00007
     6    C    1  px     Val( 2p)     0.91069
     7    C    1  px     Ryd( 3p)     0.01668
     8    C    1  px     Ryd( 4p)     0.00179
     9    C    1  py     Val( 2p)     1.12505
    10    C    1  py     Ryd( 3p)     0.00278
    11    C    1  py     Ryd( 4p)     0.00236
    12    C    1  pz     Val( 2p)     1.31611
    13    C    1  pz     Ryd( 3p)     0.02908
    14    C    1  pz     Ryd( 4p)     0.00076
    15    C    1  dxy    Ryd( 3d)     0.00181
    16    C    1  dxz    Ryd( 3d)     0.00088
    17    C    1  dyz    Ryd( 3d)     0.00047
    18    C    1  dx2y2  Ryd( 3d)     0.00124
    19    C    1  dz2    Ryd( 3d)     0.00076

    20    C    2  S      Cor( 1S)     1.99906
    21    C    2  S      Val( 2S)     0.93284
    22    C    2  S      Ryd( 3S)     0.00253
    23    C    2  S      Ryd( 4S)     0.00032
    24    C    2  S      Ryd( 5S)     0.00004
    25    C    2  px     Val( 2p)     1.15342
    26    C    2  px     Ryd( 3p)     0.00592
    27    C    2  px     Ryd( 4p)     0.00183
    28    C    2  py     Val( 2p)     0.92258
    29    C    2  py     Ryd( 3p)     0.01060
    30    C    2  py     Ryd( 4p)     0.00082
    31    C    2  pz     Val( 2p)     1.09688
    32    C    2  pz     Ryd( 3p)     0.01249
    33    C    2  pz     Ryd( 4p)     0.00093
    34    C    2  dxy    Ryd( 3d)     0.00143
    35    C    2  dxz    Ryd( 3d)     0.00043
    36    C    2  dyz    Ryd( 3d)     0.00097
    37    C    2  dx2y2  Ryd( 3d)     0.00090
    38    C    2  dz2    Ryd( 3d)     0.00043

    39    C    3  S      Cor( 1S)     1.99907
    40    C    3  S      Val( 2S)     1.04120
    41    C    3  S      Ryd( 3S)     0.00152
    42    C    3  S      Ryd( 4S)     0.00039
    43    C    3  S      Ryd( 5S)     0.00005
    44    C    3  px     Val( 2p)     1.04153
    45    C    3  px     Ryd( 3p)     0.00811
    46    C    3  px     Ryd( 4p)     0.00117
    47    C    3  py     Val( 2p)     1.17754
    48    C    3  py     Ryd( 3p)     0.00238
    49    C    3  py     Ryd( 4p)     0.00160
    50    C    3  pz     Val( 2p)     1.36952
    51    C    3  pz     Ryd( 3p)     0.02159
    52    C    3  pz     Ryd( 4p)     0.00037
    53    C    3  dxy    Ryd( 3d)     0.00128
    54    C    3  dxz    Ryd( 3d)     0.00053
    55    C    3  dyz    Ryd( 3d)     0.00052
    56    C    3  dx2y2  Ryd( 3d)     0.00074
    57    C    3  dz2    Ryd( 3d)     0.00088

    58    S    4  S      Cor( 1S)     2.00000
    59    S    4  S      Cor( 2S)     1.99935
    60    S    4  S      Val( 3S)     1.63242
    61    S    4  S      Ryd( 4S)     0.00992
    62    S    4  S      Ryd( 5S)     0.00072
    63    S    4  S      Ryd( 6S)     0.00001
    64    S    4  px     Cor( 2p)     1.99984
    65    S    4  px     Val( 3p)     1.37208
    66    S    4  px     Ryd( 4p)     0.00336
    67    S    4  px     Ryd( 5p)     0.00031
    68    S    4  py     Cor( 2p)     1.99986
    69    S    4  py     Val( 3p)     0.95275
    70    S    4  py     Ryd( 4p)     0.01091
    71    S    4  py     Ryd( 5p)     0.00088
    72    S    4  pz     Cor( 2p)     1.99996
    73    S    4  pz     Val( 3p)     1.79527
    74    S    4  pz     Ryd( 4p)     0.03896
    75    S    4  pz     Ryd( 5p)     0.00081
    76    S    4  dxy    Ryd( 3d)     0.00950
    77    S    4  dxz    Ryd( 3d)     0.00541
    78    S    4  dyz    Ryd( 3d)     0.00420
    79    S    4  dx2y2  Ryd( 3d)     0.00224
    80    S    4  dz2    Ryd( 3d)     0.00275

    81    H    5  S      Val( 1S)     0.79886
    82    H    5  S      Ryd( 2S)     0.00100

    83    H    6  S      Val( 1S)     0.77507
    84    H    6  S      Ryd( 2S)     0.00105

    85    N    7  S      Cor( 1S)     1.99939
    86    N    7  S      Val( 2S)     1.36860
    87    N    7  S      Ryd( 3S)     0.00563
    88    N    7  S      Ryd( 4S)     0.00017
    89    N    7  S      Ryd( 5S)     0.00003
    90    N    7  px     Val( 2p)     1.51866
    91    N    7  px     Ryd( 3p)     0.00761
    92    N    7  px     Ryd( 4p)     0.00043
    93    N    7  py     Val( 2p)     1.34392
    94    N    7  py     Ryd( 3p)     0.00683
    95    N    7  py     Ryd( 4p)     0.00053
    96    N    7  pz     Val( 2p)     1.29571
    97    N    7  pz     Ryd( 3p)     0.00441
    98    N    7  pz     Ryd( 4p)     0.00028
    99    N    7  dxy    Ryd( 3d)     0.00246
   100    N    7  dxz    Ryd( 3d)     0.00196
   101    N    7  dyz    Ryd( 3d)     0.00101
   102    N    7  dx2y2  Ryd( 3d)     0.00329
   103    N    7  dz2    Ryd( 3d)     0.00275

   104    H    8  S      Val( 1S)     0.79601
   105    H    8  S      Ryd( 2S)     0.00076


 Summary of Natural Population Analysis:                  
                                                          
                                       Natural Population 
                Natural  -----------------------------------------------
    Atom  No    Charge         Core      Valence    Rydberg      Total
 -----------------------------------------------------------------------
      C    1   -0.40762      1.99942     4.34526    0.06293     6.40762
      C    2   -0.14443      1.99906     4.10573    0.03965     6.14443
      C    3   -0.67000      1.99907     4.62978    0.04115     6.67000
      S    4    0.15847      9.99901     5.75253    0.08999    15.84153
      H    5    0.20014      0.00000     0.79886    0.00100     0.79986
      H    6    0.22388      0.00000     0.77507    0.00105     0.77612
      N    7   -0.56366      1.99939     5.52689    0.03738     7.56366
      H    8    0.20323      0.00000     0.79601    0.00076     0.79677
 =======================================================================
   * Total *   -1.00000     17.99596    26.73012    0.27392    45.00000

                                 Natural Population      
 --------------------------------------------------------
   Core                      17.99596 ( 99.9776% of  18)
   Valence                   26.73012 ( 99.0004% of  27)
   Natural Minimal Basis     44.72608 ( 99.3913% of  45)
   Natural Rydberg Basis      0.27392 (  0.6087% of  45)
 --------------------------------------------------------

    Atom  No          Natural Electron Configuration
 ----------------------------------------------------------------------------
      C    1      [core]2S( 0.99)2p( 3.35)3p( 0.05)3d( 0.01)
      C    2      [core]2S( 0.93)2p( 3.17)3p( 0.03)
      C    3      [core]2S( 1.04)2p( 3.59)3p( 0.03)
      S    4      [core]3S( 1.63)3p( 4.12)4S( 0.01)3d( 0.02)4p( 0.05)
      H    5            1S( 0.80)
      H    6            1S( 0.78)
      N    7      [core]2S( 1.37)2p( 4.16)3S( 0.01)3p( 0.02)3d( 0.01)
      H    8            1S( 0.80)


 ***************************************************
 *******         Alpha spin orbitals         *******
 ***************************************************


 NATURAL POPULATIONS:  Natural atomic orbital occupancies 
                                                          
   NAO  Atom  No  lang   Type(AO)    Occupancy      Energy
 ----------------------------------------------------------
     1    C    1  S      Cor( 1S)     0.99971      -9.90330
     2    C    1  S      Val( 2S)     0.50541      -0.06811
     3    C    1  S      Ryd( 4S)     0.00193       1.11881
     4    C    1  S      Ryd( 3S)     0.00020       0.64398
     5    C    1  S      Ryd( 5S)     0.00004       4.16171
     6    C    1  px     Val( 2p)     0.45823       0.11455
     7    C    1  px     Ryd( 3p)     0.00829       0.54117
     8    C    1  px     Ryd( 4p)     0.00088       0.65993
     9    C    1  py     Val( 2p)     0.56638       0.08648
    10    C    1  py     Ryd( 4p)     0.00141       0.92474
    11    C    1  py     Ryd( 3p)     0.00120       0.64036
    12    C    1  pz     Val( 2p)     0.84997       0.01473
    13    C    1  pz     Ryd( 3p)     0.02619       0.40177
    14    C    1  pz     Ryd( 4p)     0.00067       0.68566
    15    C    1  dxy    Ryd( 3d)     0.00090       2.57197
    16    C    1  dxz    Ryd( 3d)     0.00043       2.26918
    17    C    1  dyz    Ryd( 3d)     0.00020       1.94911
    18    C    1  dx2y2  Ryd( 3d)     0.00062       2.58365
    19    C    1  dz2    Ryd( 3d)     0.00025       2.36996

    20    C    2  S      Cor( 1S)     0.99953      -9.87910
    21    C    2  S      Val( 2S)     0.46606       0.01262
    22    C    2  S      Ryd( 3S)     0.00126       1.07625
    23    C    2  S      Ryd( 4S)     0.00018       1.46268
    24    C    2  S      Ryd( 5S)     0.00002       3.38998
    25    C    2  px     Val( 2p)     0.57573       0.12722
    26    C    2  px     Ryd( 4p)     0.00298       0.98521
    27    C    2  px     Ryd( 3p)     0.00091       0.49521
    28    C    2  py     Val( 2p)     0.46012       0.16001
    29    C    2  py     Ryd( 4p)     0.00529       0.76536
    30    C    2  py     Ryd( 3p)     0.00041       0.55818
    31    C    2  pz     Val( 2p)     0.56100       0.07362
    32    C    2  pz     Ryd( 3p)     0.00989       0.54868
    33    C    2  pz     Ryd( 4p)     0.00069       0.55291
    34    C    2  dxy    Ryd( 3d)     0.00070       2.65748
    35    C    2  dxz    Ryd( 3d)     0.00023       2.04591
    36    C    2  dyz    Ryd( 3d)     0.00055       2.25904
    37    C    2  dx2y2  Ryd( 3d)     0.00045       2.68071
    38    C    2  dz2    Ryd( 3d)     0.00020       2.52989

    39    C    3  S      Cor( 1S)     0.99954      -9.87832
    40    C    3  S      Val( 2S)     0.52687      -0.08322
    41    C    3  S      Ryd( 4S)     0.00074       1.01171
    42    C    3  S      Ryd( 3S)     0.00021       0.67529
    43    C    3  S      Ryd( 5S)     0.00002       4.38884
    44    C    3  px     Val( 2p)     0.52332       0.06711
    45    C    3  px     Ryd( 3p)     0.00405       0.47859
    46    C    3  px     Ryd( 4p)     0.00057       0.75882
    47    C    3  py     Val( 2p)     0.59157       0.08332
    48    C    3  py     Ryd( 4p)     0.00121       0.91589
    49    C    3  py     Ryd( 3p)     0.00082       0.69750
    50    C    3  pz     Val( 2p)     0.82399       0.01861
    51    C    3  pz     Ryd( 3p)     0.01889       0.37307
    52    C    3  pz     Ryd( 4p)     0.00022       0.75333
    53    C    3  dxy    Ryd( 3d)     0.00064       2.47676
    54    C    3  dxz    Ryd( 3d)     0.00024       2.05260
    55    C    3  dyz    Ryd( 3d)     0.00023       1.92962
    56    C    3  dx2y2  Ryd( 3d)     0.00037       2.41786
    57    C    3  dz2    Ryd( 3d)     0.00033       2.32825

    58    S    4  S      Cor( 1S)     1.00000     -87.56549
    59    S    4  S      Cor( 2S)     0.99967      -8.63190
    60    S    4  S      Val( 3S)     0.81745      -0.53047
    61    S    4  S      Ryd( 4S)     0.00513       0.52090
    62    S    4  S      Ryd( 5S)     0.00040       0.52253
    63    S    4  S      Ryd( 6S)     0.00001       4.10670
    64    S    4  px     Cor( 2p)     0.99992      -5.71887
    65    S    4  px     Val( 3p)     0.68077      -0.01400
    66    S    4  px     Ryd( 4p)     0.00167       0.36075
    67    S    4  px     Ryd( 5p)     0.00015       0.45845
    68    S    4  py     Cor( 2p)     0.99993      -5.72161
    69    S    4  py     Val( 3p)     0.47235       0.01859
    70    S    4  py     Ryd( 4p)     0.00543       0.38769
    71    S    4  py     Ryd( 5p)     0.00045       0.50295
    72    S    4  pz     Cor( 2p)     0.99999      -5.71781
    73    S    4  pz     Val( 3p)     0.98020      -0.06630
    74    S    4  pz     Ryd( 4p)     0.03677       0.35253
    75    S    4  pz     Ryd( 5p)     0.00063       0.53687
    76    S    4  dxy    Ryd( 3d)     0.00463       1.39779
    77    S    4  dxz    Ryd( 3d)     0.00391       1.03684
    78    S    4  dyz    Ryd( 3d)     0.00212       1.02701
    79    S    4  dx2y2  Ryd( 3d)     0.00110       1.19688
    80    S    4  dz2    Ryd( 3d)     0.00140       1.24673

    81    H    5  S      Val( 1S)     0.39853       0.24330
    82    H    5  S      Ryd( 2S)     0.00050       0.71367

    83    H    6  S      Val( 1S)     0.38251       0.25071
    84    H    6  S      Ryd( 2S)     0.00056       0.71243

    85    N    7  S      Cor( 1S)     0.99970     -13.92843
    86    N    7  S      Val( 2S)     0.68481      -0.32136
    87    N    7  S      Ryd( 3S)     0.00281       0.90941
    88    N    7  S      Ryd( 4S)     0.00009       1.84031
    89    N    7  S      Ryd( 5S)     0.00001       3.87629
    90    N    7  px     Val( 2p)     0.75670      -0.01086
    91    N    7  px     Ryd( 3p)     0.00378       0.87029
    92    N    7  px     Ryd( 4p)     0.00020       0.92291
    93    N    7  py     Val( 2p)     0.67110       0.02759
    94    N    7  py     Ryd( 3p)     0.00340       0.94039
    95    N    7  py     Ryd( 4p)     0.00027       0.97245
    96    N    7  pz     Val( 2p)     0.67701       0.01697
    97    N    7  pz     Ryd( 3p)     0.00385       0.72041
    98    N    7  pz     Ryd( 4p)     0.00013       0.84525
    99    N    7  dxy    Ryd( 3d)     0.00122       2.21435
   100    N    7  dxz    Ryd( 3d)     0.00085       1.96951
   101    N    7  dyz    Ryd( 3d)     0.00069       1.96337
   102    N    7  dx2y2  Ryd( 3d)     0.00162       2.50326
   103    N    7  dz2    Ryd( 3d)     0.00134       2.29408

   104    H    8  S      Val( 1S)     0.39088       0.24308
   105    H    8  S      Ryd( 2S)     0.00038       0.74738

 WARNING:  Population inversion found on atom  C    1
           Population inversion found on atom  C    2
           Population inversion found on atom  C    3


 Summary of Natural Population Analysis:                  
                                                          
                                       Natural Population 
                Natural  -----------------------------------------------
    Atom  No    Charge         Core      Valence    Rydberg      Total
 -----------------------------------------------------------------------
      C    1   -0.42293      0.99971     2.38000    0.04322     3.42293
      C    2   -0.08621      0.99953     2.06290    0.02377     3.08621
      C    3   -0.49385      0.99954     2.46575    0.02856     3.49385
      S    4   -0.01406      4.99951     2.95076    0.06378     8.01406
      H    5    0.10097      0.00000     0.39853    0.00050     0.39903
      H    6    0.11694      0.00000     0.38251    0.00056     0.38306
      N    7   -0.30960      0.99970     2.78963    0.02028     3.80960
      H    8    0.10874      0.00000     0.39088    0.00038     0.39126
 =======================================================================
   * Total *   -1.00000      8.99800    13.82096    0.18104    23.00000

                                 Natural Population      
 --------------------------------------------------------
   Core                       8.99800 ( 99.9777% of   9)
   Valence                   13.82096 ( 98.7212% of  14)
   Natural Minimal Basis     22.81896 ( 99.2129% of  23)
   Natural Rydberg Basis      0.18104 (  0.7871% of  23)
 --------------------------------------------------------

    Atom  No          Natural Electron Configuration
 ----------------------------------------------------------------------------
      C    1      [core]2S( 0.51)2p( 1.87)3p( 0.04)
      C    2      [core]2S( 0.47)2p( 1.60)3p( 0.01)4p( 0.01)
      C    3      [core]2S( 0.53)2p( 1.94)3p( 0.02)
      S    4      [core]3S( 0.82)3p( 2.13)4S( 0.01)3d( 0.01)4p( 0.04)
      H    5            1S( 0.40)
      H    6            1S( 0.38)
      N    7      [core]2S( 0.68)2p( 2.10)3p( 0.01)3d( 0.01)
      H    8            1S( 0.39)


 NATURAL BOND ORBITAL ANALYSIS, alpha spin orbitals:

                       Occupancies       Lewis Structure    Low   High
           Occ.    -------------------  -----------------   occ   occ
  Cycle   Thresh.   Lewis   Non-Lewis     CR  BD  3C  LP    (L)   (NL)   Dev
 =============================================================================
   1(1)    0.90    22.38477   0.61523      9  11   0   3     1      1    0.06
   2(2)    0.90    22.34797   0.65203      9  11   0   3     1      1    0.02
   3(3)    0.90    22.38477   0.61523      9  11   0   3     1      1    0.06
   4(4)    0.90    22.34797   0.65203      9  11   0   3     1      1    0.02
   5(5)    0.90    22.38477   0.61523      9  11   0   3     1      1    0.06
   6(6)    0.90    22.34797   0.65203      9  11   0   3     1      1    0.02
   7(7)    0.90    22.38477   0.61523      9  11   0   3     1      1    0.06
   8(8)    0.90    22.34797   0.65203      9  11   0   3     1      1    0.02
   9(9)    0.90    22.38477   0.61523      9  11   0   3     1      1    0.06
  10(1)    0.80    22.53926   0.46074      9   9   0   5     0      1    0.06
 -----------------------------------------------------------------------------

 Structure accepted: No low occupancy Lewis orbitals

 --------------------------------------------------------
   Core                      8.99800 ( 99.978% of   9)
   Valence Lewis            13.54126 ( 96.723% of  14)
  ==================       ============================
   Total Lewis              22.53926 ( 97.997% of  23)
  -----------------------------------------------------
   Valence non-Lewis         0.35894 (  1.561% of  23)
   Rydberg non-Lewis         0.10180 (  0.443% of  23)
  ==================       ============================
   Total non-Lewis           0.46074 (  2.003% of  23)
 --------------------------------------------------------


       (Occupancy)   Bond orbital/ Coefficients/ Hybrids
 ---------------------------------------------------------------------------------
     1. (0.99331) BD ( 1) C   1 - S   4  
                ( 50.15%)   0.7082* C   1 s( 29.01%)p 2.44( 70.87%)d 0.00(  0.13%)
                                            0.0001  0.5380  0.0228  0.0097 -0.0027
                                           -0.6091  0.0622  0.0006  0.5770 -0.0041
                                           -0.0305 -0.0008  0.0000  0.0000 -0.0311
                                            0.0000 -0.0001 -0.0020 -0.0168
                ( 49.85%)   0.7060* S   4 s( 18.24%)p 4.45( 81.18%)d 0.03(  0.58%)
                                            0.0000  0.0000  0.4236 -0.0543 -0.0028
                                            0.0004  0.0000  0.5434 -0.0218 -0.0012
                                            0.0000 -0.7145  0.0720 -0.0185  0.0000
                                            0.0007 -0.0001  0.0000 -0.0680  0.0000
                                            0.0000  0.0010 -0.0336
     2. (0.99445) BD ( 1) C   1 - N   7  
                ( 40.83%)   0.6390* C   1 s( 35.61%)p 1.81( 64.34%)d 0.00(  0.05%)
                                            0.0002  0.5956 -0.0373 -0.0021  0.0020
                                            0.7541 -0.0994  0.0291  0.2519  0.0027
                                           -0.0249 -0.0007  0.0002  0.0000  0.0115
                                           -0.0001  0.0000  0.0148 -0.0125
                ( 59.17%)   0.7692* N   7 s( 37.77%)p 1.64( 61.98%)d 0.01(  0.25%)
                                           -0.0001  0.6136 -0.0339  0.0047 -0.0014
                                           -0.7112  0.0191  0.0124 -0.3346  0.0390
                                           -0.0050  0.0007 -0.0001  0.0000  0.0136
                                           -0.0001  0.0000  0.0366 -0.0317
     3. (0.99268) BD ( 1) C   1 - H   8  
                ( 61.26%)   0.7827* C   1 s( 35.34%)p 1.83( 64.61%)d 0.00(  0.05%)
                                            0.0003 -0.5944 -0.0101  0.0082 -0.0013
                                            0.2102  0.0019 -0.0072  0.7752 -0.0284
                                           -0.0100  0.0053  0.0007  0.0001 -0.0107
                                            0.0000  0.0000  0.0174  0.0065
                ( 38.74%)   0.6224* H   8 s(100.00%)
                                           -1.0000 -0.0049
     4. (0.99477) BD ( 1) C   2 - C   3  
                ( 48.99%)   0.6999* C   2 s( 37.73%)p 1.65( 62.22%)d 0.00(  0.04%)
                                            0.0000  0.6142 -0.0069 -0.0040  0.0020
                                           -0.6834  0.0217  0.0134  0.3910 -0.0410
                                            0.0075  0.0001 -0.0001  0.0000 -0.0133
                                            0.0000  0.0000  0.0131 -0.0096
                ( 51.01%)   0.7142* C   3 s( 39.26%)p 1.55( 60.70%)d 0.00(  0.04%)
                                            0.0001  0.6265 -0.0059  0.0035  0.0037
                                            0.7073 -0.0576  0.0141 -0.3208  0.0005
                                            0.0174  0.0003  0.0000  0.0000 -0.0149
                                            0.0000  0.0000  0.0041 -0.0124
     5. (0.98961) BD ( 1) C   2 - H   5  
                ( 60.35%)   0.7769* C   2 s( 32.04%)p 2.12( 67.90%)d 0.00(  0.06%)
                                           -0.0005  0.5657  0.0172  0.0020 -0.0021
                                            0.7280 -0.0026 -0.0128  0.3856  0.0079
                                           -0.0116  0.0017  0.0002  0.0001  0.0174
                                            0.0000 -0.0001  0.0129 -0.0109
                ( 39.65%)   0.6297* H   5 s(100.00%)
                                            1.0000  0.0030
     6. (0.99042) BD ( 1) C   2 - N   7  
                ( 41.01%)   0.6404* C   2 s( 30.18%)p 2.31( 69.76%)d 0.00(  0.06%)
                                            0.0001  0.5490 -0.0194  0.0012  0.0002
                                            0.0136 -0.0441  0.0246 -0.8307  0.0605
                                            0.0024 -0.0334 -0.0027 -0.0008  0.0003
                                            0.0000  0.0010 -0.0210 -0.0134
                ( 58.99%)   0.7680* N   7 s( 32.62%)p 2.06( 67.17%)d 0.01(  0.21%)
                                           -0.0003  0.5705 -0.0276 -0.0048  0.0017
                                            0.1095 -0.0382  0.0047  0.8102 -0.0227
                                           -0.0134 -0.0324 -0.0005 -0.0002 -0.0151
                                            0.0009 -0.0010 -0.0330 -0.0275
     7. (0.98335) BD ( 2) C   2 - N   7  
                ( 42.14%)   0.6491* C   2 s(  0.03%)p99.99( 99.89%)d 2.35(  0.07%)
                                            0.0000  0.0174  0.0009 -0.0032  0.0014
                                           -0.0007 -0.0005  0.0022 -0.0286  0.0024
                                            0.0001  0.9955  0.0816  0.0220  0.0000
                                           -0.0024 -0.0271 -0.0006 -0.0002
                ( 57.86%)   0.7607* N   7 s(  0.03%)p99.99( 99.76%)d 6.20(  0.20%)
                                            0.0000  0.0180  0.0015 -0.0005  0.0002
                                            0.0038 -0.0007  0.0006  0.0266 -0.0012
                                           -0.0008  0.9983  0.0149  0.0055 -0.0003
                                           -0.0297  0.0339 -0.0011 -0.0010
     8. (0.99014) BD ( 1) C   3 - S   4  
                ( 51.74%)   0.7193* C   3 s( 25.99%)p 2.84( 73.89%)d 0.00(  0.12%)
                                           -0.0002  0.5096  0.0052 -0.0121 -0.0029
                                           -0.6823  0.0562 -0.0071 -0.5190  0.0018
                                            0.0279 -0.0009  0.0001  0.0000  0.0290
                                            0.0000  0.0000  0.0008 -0.0195
                ( 48.26%)   0.6947* S   4 s( 19.04%)p 4.22( 80.35%)d 0.03(  0.61%)
                                            0.0000  0.0001  0.4312 -0.0667 -0.0033
                                           -0.0004  0.0000  0.5730 -0.0278 -0.0009
                                            0.0000  0.6843 -0.0765  0.0192  0.0000
                                           -0.0001 -0.0001 -0.0001  0.0692  0.0000
                                            0.0000  0.0059 -0.0354
     9. (0.99263) BD ( 1) C   3 - H   6  
                ( 61.87%)   0.7866* C   3 s( 34.65%)p 1.88( 65.31%)d 0.00(  0.04%)
                                           -0.0003  0.5886  0.0009  0.0072 -0.0008
                                           -0.1623  0.0051  0.0018  0.7911 -0.0279
                                           -0.0057 -0.0067 -0.0009 -0.0001 -0.0088
                                            0.0000  0.0001 -0.0148 -0.0095
                ( 38.13%)   0.6175* H   6 s(100.00%)
                                            1.0000  0.0043
    10. (0.99971) CR ( 1) C   1           s(100.00%)p 0.00(  0.00%)
                                            1.0000  0.0001  0.0000  0.0000  0.0000
                                           -0.0002  0.0000  0.0000 -0.0003  0.0000
                                            0.0000  0.0000  0.0000  0.0000  0.0000
                                            0.0000  0.0000  0.0000  0.0000
    11. (0.99954) CR ( 1) C   2           s(100.00%)p 0.00(  0.00%)
                                            1.0000  0.0002  0.0000  0.0000  0.0000
                                            0.0003  0.0000  0.0000  0.0002  0.0000
                                            0.0000  0.0000  0.0000  0.0000  0.0000
                                            0.0000  0.0000  0.0000  0.0000
    12. (0.99954) CR ( 1) C   3           s(100.00%)p 0.00(  0.00%)
                                            1.0000  0.0002  0.0000  0.0000  0.0000
                                           -0.0002  0.0000  0.0000  0.0002  0.0000
                                            0.0000  0.0000  0.0000  0.0000  0.0000
                                            0.0000  0.0000  0.0000  0.0000
    13. (1.00000) CR ( 1) S   4           s(100.00%)
                                            1.0000  0.0000  0.0000  0.0000  0.0000
                                            0.0000  0.0000  0.0000  0.0000  0.0000
                                            0.0000  0.0000  0.0000  0.0000  0.0000
                                            0.0000  0.0000  0.0000  0.0000  0.0000
                                            0.0000  0.0000  0.0000
    14. (0.99967) CR ( 2) S   4           s(100.00%)p 0.00(  0.00%)
                                            0.0000  1.0000  0.0003  0.0000  0.0000
                                            0.0000  0.0000 -0.0003  0.0000  0.0000
                                            0.0000 -0.0001  0.0000  0.0000  0.0000
                                            0.0000  0.0000  0.0000  0.0000  0.0000
                                            0.0000  0.0000  0.0000
    15. (0.99992) CR ( 3) S   4           s(  0.00%)p 1.00(100.00%)
                                            0.0000  0.0000  0.0001  0.0000  0.0000
                                            0.0000  1.0000 -0.0001  0.0000  0.0000
                                            0.0000  0.0000  0.0000  0.0000  0.0000
                                            0.0000  0.0000  0.0000  0.0000  0.0000
                                            0.0000  0.0000  0.0000
    16. (0.99993) CR ( 4) S   4           s(  0.00%)p 1.00(100.00%)
                                            0.0000  0.0000  0.0000  0.0000  0.0000
                                            0.0000  0.0000  0.0000  0.0000  0.0000
                                            1.0000  0.0000  0.0000  0.0000  0.0000
                                            0.0000  0.0000  0.0000  0.0000  0.0000
                                            0.0000  0.0000  0.0000
    17. (0.99999) CR ( 5) S   4           s(  0.00%)p 1.00(100.00%)
                                            0.0000  0.0000  0.0000  0.0000  0.0000
                                            0.0000  0.0000  0.0000  0.0000  0.0000
                                            0.0000  0.0000  0.0000  0.0000  1.0000
                                           -0.0001  0.0000  0.0000  0.0000  0.0000
                                            0.0000  0.0000  0.0000
    18. (0.99970) CR ( 1) N   7           s(100.00%)p 0.00(  0.00%)
                                            1.0000  0.0002  0.0000  0.0000  0.0000
                                           -0.0001  0.0000  0.0000  0.0002  0.0000
                                            0.0000  0.0000  0.0000  0.0000  0.0000
                                            0.0000  0.0000  0.0000  0.0000
    19. (0.86176) LP ( 1) C   1           s(  0.00%)p 1.00( 99.99%)d 0.00(  0.01%)
                                            0.0000  0.0040 -0.0010  0.0034 -0.0003
                                           -0.0012 -0.0006 -0.0004 -0.0035  0.0015
                                            0.0017  0.9930  0.1160  0.0190  0.0002
                                           -0.0007  0.0088  0.0000 -0.0002
    20. (0.83210) LP ( 1) C   3           s(  0.00%)p 1.00( 99.98%)d 0.00(  0.02%)
                                            0.0000  0.0043 -0.0014 -0.0031  0.0005
                                           -0.0019 -0.0001  0.0004  0.0049 -0.0026
                                           -0.0034  0.9950  0.0978  0.0102  0.0002
                                            0.0031 -0.0122 -0.0001 -0.0001
    21. (0.99189) LP ( 1) S   4           s( 63.44%)p 0.58( 36.54%)d 0.00(  0.02%)
                                            0.0000 -0.0004  0.7957  0.0346  0.0011
                                            0.0001 -0.0002 -0.6043  0.0022  0.0083
                                            0.0000  0.0090  0.0017  0.0002  0.0000
                                            0.0033  0.0005  0.0001 -0.0005  0.0000
                                            0.0000 -0.0076  0.0133
    22. (0.99013) LP ( 2) S   4           s(  0.00%)p 1.00( 99.99%)d 0.00(  0.00%)
                                            0.0000  0.0000  0.0029 -0.0030  0.0041
                                           -0.0003  0.0000 -0.0019  0.0016 -0.0003
                                            0.0000 -0.0006 -0.0005 -0.0004 -0.0001
                                           -0.9948 -0.1014  0.0012  0.0001  0.0042
                                           -0.0013  0.0000 -0.0001
    23. (0.94404) LP ( 1) N   7           s( 29.78%)p 2.35( 70.08%)d 0.00(  0.14%)
                                            0.0000  0.5443  0.0398 -0.0002 -0.0005
                                            0.6894  0.0287  0.0036 -0.4736 -0.0209
                                           -0.0015  0.0001  0.0001  0.0001  0.0305
                                            0.0000  0.0000 -0.0120  0.0183
    24. (0.01529) RY*( 1) C   1           s(  0.10%)p99.99( 98.74%)d11.40(  1.16%)
                                            0.0000 -0.0002 -0.0109  0.0298 -0.0027
                                           -0.0015 -0.0087 -0.0039  0.0003  0.0113
                                            0.0138 -0.1163  0.9769  0.1381  0.0022
                                           -0.0762 -0.0761 -0.0001 -0.0013
    25. (0.00431) RY*( 2) C   1           s(  9.84%)p 8.50( 83.67%)d 0.66(  6.49%)
                                            0.0000  0.0295  0.3072 -0.0493 -0.0274
                                            0.1224  0.8869 -0.1815 -0.0174 -0.0394
                                           -0.0069 -0.0005  0.0128  0.0018 -0.2230
                                           -0.0013 -0.0012  0.1232 -0.0006
    26. (0.00237) RY*( 3) C   1           s( 18.78%)p 3.35( 62.92%)d 0.97( 18.30%)
                                            0.0000 -0.0287  0.4281  0.0163  0.0590
                                           -0.0053 -0.1681  0.3294 -0.0073  0.5745
                                           -0.4029 -0.0001  0.0040 -0.0004 -0.2740
                                           -0.0008 -0.0002  0.3238  0.0552
    27. (0.00047) RY*( 4) C   1           s( 47.11%)p 0.79( 37.18%)d 0.33( 15.71%)
                                            0.0000  0.0151  0.6824  0.0240  0.0685
                                            0.0032 -0.2369 -0.4865  0.0249  0.0458
                                            0.2762  0.0000 -0.0022 -0.0031  0.3928
                                           -0.0078  0.0026  0.0501  0.0150
    28. (0.00043) RY*( 5) C   1           s(  0.05%)p99.99( 15.21%)d99.99( 84.74%)
                                            0.0000  0.0003  0.0018  0.0234  0.0005
                                            0.0005  0.0011 -0.0052  0.0004  0.0111
                                            0.0101 -0.0046 -0.0036  0.3896  0.0034
                                            0.8950 -0.2153  0.0010 -0.0011
    29. (0.00021) RY*( 6) C   1           s( 22.00%)p 2.49( 54.81%)d 1.05( 23.20%)
                                            0.0000 -0.0027 -0.2023  0.3635  0.2166
                                            0.0181  0.0803 -0.4804  0.0022  0.4130
                                           -0.3739 -0.0002 -0.0121 -0.0016  0.0140
                                           -0.0071  0.0193 -0.4660  0.1192
    30. (0.00005) RY*( 7) C   1           s( 66.97%)p 0.07(  4.67%)d 0.42( 28.36%)
    31. (0.00004) RY*( 8) C   1           s( 10.41%)p 7.81( 81.35%)d 0.79(  8.24%)
    32. (0.00003) RY*( 9) C   1           s(  8.94%)p 1.16( 10.36%)d 9.02( 80.69%)
    33. (0.00002) RY*(10) C   1           s( 14.92%)p 2.59( 38.59%)d 3.12( 46.49%)
    34. (0.00000) RY*(11) C   1           s( 80.84%)p 0.19( 15.24%)d 0.05(  3.92%)
    35. (0.00000) RY*(12) C   1           s(  0.04%)p99.99( 75.13%)d99.99( 24.83%)
    36. (0.00000) RY*(13) C   1           s( 16.79%)p 1.16( 19.49%)d 3.80( 63.73%)
    37. (0.00001) RY*(14) C   1           s(  3.24%)p 0.88(  2.85%)d28.96( 93.91%)
    38. (0.00719) RY*( 1) C   2           s(  0.38%)p99.99( 96.32%)d 8.70(  3.30%)
                                            0.0000 -0.0001 -0.0265  0.0515 -0.0211
                                           -0.0005 -0.0159 -0.0197  0.0010  0.0017
                                           -0.0021  0.0856 -0.9529 -0.2170  0.0034
                                           -0.1499  0.1027 -0.0019 -0.0049
    39. (0.00398) RY*( 2) C   2           s(  9.10%)p 9.25( 84.22%)d 0.73(  6.68%)
                                            0.0000  0.0171  0.2837 -0.1008  0.0105
                                            0.0371  0.2168 -0.0125 -0.0694 -0.8782
                                            0.1315  0.0009 -0.0183 -0.0039 -0.2458
                                           -0.0030  0.0014 -0.0664  0.0444
    40. (0.00284) RY*( 3) C   2           s( 13.74%)p 5.81( 79.81%)d 0.47(  6.44%)
                                            0.0000 -0.0114  0.3543  0.1064  0.0213
                                           -0.0073 -0.8175  0.3533  0.0372 -0.0252
                                            0.0536  0.0000  0.0008 -0.0004 -0.2397
                                           -0.0001  0.0001 -0.0674  0.0497
    41. (0.00066) RY*( 4) C   2           s(  0.23%)p20.02(  4.51%)d99.99( 95.26%)
                                            0.0000  0.0002 -0.0296  0.0358 -0.0097
                                            0.0001 -0.0212 -0.0302  0.0004 -0.0175
                                            0.0262  0.0127  0.1057  0.1774  0.0106
                                           -0.2504  0.9432 -0.0140 -0.0043
    42. (0.00053) RY*( 5) C   2           s(  9.05%)p 8.02( 72.58%)d 2.03( 18.37%)
                                            0.0000 -0.0022  0.2910 -0.0494 -0.0582
                                            0.0015  0.3240  0.4407 -0.0133  0.1383
                                           -0.6379  0.0011 -0.0171  0.0092 -0.2819
                                           -0.0214  0.0547  0.3076  0.0783
    43. (0.00020) RY*( 6) C   2           s( 63.95%)p 0.49( 31.47%)d 0.07(  4.58%)
                                            0.0000  0.0111  0.7989 -0.0047  0.0330
                                           -0.0327  0.0942 -0.4868 -0.0115  0.2583
                                            0.0242  0.0003 -0.0130  0.0087  0.1660
                                           -0.0119  0.0101 -0.0940  0.0957
    44. (0.00009) RY*( 7) C   2           s( 76.10%)p 0.07(  5.36%)d 0.24( 18.54%)
    45. (0.00005) RY*( 8) C   2           s(  3.23%)p 2.70(  8.72%)d27.27( 88.05%)
    46. (0.00003) RY*( 9) C   2           s(  4.95%)p10.66( 52.70%)d 8.56( 42.35%)
    47. (0.00001) RY*(10) C   2           s(  2.69%)p30.84( 83.06%)d 5.29( 14.25%)
    48. (0.00001) RY*(11) C   2           s( 14.83%)p 2.36( 35.01%)d 3.38( 50.16%)
    49. (0.00001) RY*(12) C   2           s( 94.34%)p 0.03(  3.29%)d 0.03(  2.37%)
    50. (0.00000) RY*(13) C   2           s(  0.00%)p 1.00( 42.00%)d 1.38( 58.00%)
    51. (0.00000) RY*(14) C   2           s(  7.43%)p 0.16(  1.16%)d12.31( 91.41%)
    52. (0.01123) RY*( 1) C   3           s(  0.17%)p99.99( 99.24%)d 3.36(  0.59%)
                                            0.0000 -0.0005  0.0167  0.0376 -0.0066
                                            0.0000  0.0018 -0.0060  0.0010  0.0279
                                            0.0407  0.0973 -0.9866 -0.0839 -0.0027
                                           -0.0071 -0.0761  0.0000  0.0001
    53. (0.00166) RY*( 2) C   3           s( 25.09%)p 2.47( 61.92%)d 0.52( 12.99%)
                                            0.0000 -0.0140  0.4987  0.0442 -0.0014
                                           -0.0295 -0.3936  0.3400 -0.0047 -0.5460
                                            0.2228 -0.0001  0.0009  0.0004  0.0772
                                            0.0000  0.0001  0.3503  0.0349
    54. (0.00113) RY*( 3) C   3           s( 14.21%)p 5.76( 81.84%)d 0.28(  3.95%)
                                            0.0000  0.0008  0.3747 -0.0403  0.0074
                                            0.0764  0.7869 -0.3024  0.0032 -0.3190
                                            0.0076  0.0000 -0.0012  0.0005  0.1558
                                            0.0015  0.0001  0.1215 -0.0217
    55. (0.00031) RY*( 4) C   3           s( 42.44%)p 1.05( 44.64%)d 0.30( 12.92%)
                                            0.0000  0.0162  0.6443  0.0387  0.0864
                                           -0.0229 -0.2296 -0.3738 -0.0071  0.3718
                                           -0.3392  0.0000  0.0106  0.0015 -0.3525
                                           -0.0023  0.0056  0.0496  0.0494
    56. (0.00030) RY*( 5) C   3           s(  0.10%)p99.99( 18.91%)d99.99( 80.98%)
                                            0.0000 -0.0010 -0.0009  0.0298 -0.0110
                                           -0.0003 -0.0071 -0.0317  0.0011  0.0090
                                            0.0567  0.0021 -0.0579  0.4259 -0.0100
                                            0.8628  0.2555  0.0002 -0.0023
    57. (0.00026) RY*( 6) C   3           s(  3.85%)p24.27( 93.47%)d 0.70(  2.68%)
                                            0.0000 -0.0137 -0.1119  0.1160 -0.1111
                                           -0.0080 -0.2022 -0.6470  0.0109 -0.0782
                                            0.6834 -0.0003  0.0354 -0.0229 -0.1429
                                           -0.0640  0.0029  0.0231 -0.0418
    58. (0.00007) RY*( 7) C   3           s( 94.19%)p 0.04(  3.68%)d 0.02(  2.13%)
    59. (0.00002) RY*( 8) C   3           s( 17.52%)p 4.51( 79.06%)d 0.19(  3.42%)
    60. (0.00002) RY*( 9) C   3           s(  1.72%)p 2.40(  4.14%)d54.71( 94.14%)
    61. (0.00003) RY*(10) C   3           s(  3.26%)p 3.90( 12.71%)d25.77( 84.03%)
    62. (0.00000) RY*(11) C   3           s( 87.40%)p 0.13( 11.03%)d 0.02(  1.58%)
    63. (0.00000) RY*(12) C   3           s(  0.00%)p 1.00( 78.11%)d 0.28( 21.89%)
    64. (0.00000) RY*(13) C   3           s(  9.66%)p 0.84(  8.07%)d 8.52( 82.27%)
    65. (0.00001) RY*(14) C   3           s(  0.50%)p 6.57(  3.29%)d99.99( 96.21%)
    66. (0.03129) RY*( 1) S   4           s(  0.28%)p99.99( 87.62%)d43.24( 12.10%)
                                            0.0000  0.0000 -0.0004 -0.0310  0.0428
                                           -0.0035  0.0000 -0.0025  0.0160 -0.0042
                                            0.0000 -0.0008 -0.0056 -0.0038  0.0000
                                            0.0955 -0.9218 -0.1301  0.0020  0.3474
                                           -0.0198 -0.0002 -0.0006
    67. (0.00224) RY*( 2) S   4           s(  4.08%)p15.54( 63.43%)d 7.96( 32.49%)
                                            0.0000  0.0000  0.0152  0.0589  0.1900
                                            0.0320  0.0000  0.0307  0.6949 -0.1101
                                            0.0000 -0.0559 -0.3550  0.0937  0.0000
                                            0.0001  0.0190 -0.0046  0.2090 -0.0140
                                           -0.0952 -0.5169  0.0691
    68. (0.00211) RY*( 3) S   4           s(  0.03%)p22.13(  0.74%)d99.99( 99.23%)
                                            0.0000  0.0000  0.0017  0.0175  0.0023
                                            0.0045  0.0000  0.0040  0.0657 -0.0102
                                            0.0000 -0.0054 -0.0352  0.0082  0.0000
                                            0.0003 -0.0130  0.0382  0.0203  0.0338
                                            0.9938 -0.0557  0.0059
    69. (0.00103) RY*( 4) S   4           s(  9.76%)p 2.67( 26.05%)d 6.58( 64.19%)
                                            0.0000  0.0000  0.0030 -0.0141  0.3119
                                            0.0103  0.0000 -0.0002 -0.0387  0.1829
                                            0.0000 -0.1021 -0.4395  0.1475  0.0000
                                            0.0002  0.0122 -0.0045  0.5041 -0.0121
                                            0.0091  0.5914  0.1945
    70. (0.00037) RY*( 5) S   4           s( 51.92%)p 0.15(  7.62%)d 0.78( 40.46%)
                                            0.0000  0.0000  0.0001 -0.4011  0.5968
                                           -0.0460  0.0000 -0.0195  0.1852 -0.1211
                                            0.0000  0.0593  0.0849  0.0914  0.0000
                                            0.0020  0.0118 -0.0874 -0.5647 -0.1142
                                            0.0237  0.1929  0.1870
    71. (0.00029) RY*( 6) S   4           s( 57.28%)p 0.28( 15.96%)d 0.47( 26.77%)
                                            0.0000  0.0000  0.0312  0.7527 -0.0314
                                            0.0648  0.0000  0.0866  0.3418 -0.0439
                                            0.0000  0.0487  0.1423 -0.0516  0.0000
                                           -0.0020  0.0054  0.0895 -0.2749  0.1077
                                           -0.0139  0.3590  0.2268
    72. (0.00021) RY*( 7) S   4           s(  1.84%)p26.88( 49.38%)d26.55( 48.78%)
                                            0.0000  0.0000  0.0052  0.1354  0.0035
                                            0.0034  0.0000  0.0150  0.0710  0.0022
                                            0.0000  0.0092  0.1847 -0.1958  0.0000
                                            0.0133 -0.1694 -0.6222  0.1705 -0.6752
                                            0.0438  0.0292  0.0083
    73. (0.00017) RY*( 8) S   4           s(  9.57%)p 6.91( 66.08%)d 2.55( 24.36%)
                                            0.0000  0.0000  0.0032 -0.1523  0.2666
                                           -0.0373  0.0000  0.0005  0.1795 -0.0009
                                            0.0000  0.0312  0.5685 -0.5104  0.0000
                                           -0.0042  0.0693  0.1975  0.4329  0.2052
                                           -0.0072  0.0207  0.1166
    74. (0.00004) RY*( 9) S   4           s(  1.40%)p66.43( 92.98%)d 4.02(  5.62%)
    75. (0.00001) RY*(10) S   4           s(  0.32%)p99.99( 94.99%)d14.58(  4.69%)
    76. (0.00001) RY*(11) S   4           s( 58.83%)p 0.46( 27.26%)d 0.24( 13.91%)
    77. (0.00000) RY*(12) S   4           s(  0.01%)p 1.00( 64.54%)d 0.55( 35.46%)
    78. (0.00000) RY*(13) S   4           s( 99.46%)p 0.01(  0.52%)d 0.00(  0.02%)
    79. (0.00000) RY*(14) S   4           s(  4.50%)p 1.06(  4.78%)d20.16( 90.72%)
    80. (0.00050) RY*( 1) H   5           s(100.00%)
                                           -0.0030  1.0000
    81. (0.00056) RY*( 1) H   6           s(100.00%)
                                           -0.0043  1.0000
    82. (0.00398) RY*( 1) N   7           s(  0.38%)p99.99( 95.15%)d11.92(  4.47%)
                                            0.0000  0.0004  0.0607 -0.0074  0.0032
                                           -0.0045  0.0402  0.0104  0.0031 -0.0313
                                           -0.0096 -0.0136  0.9739 -0.0086  0.0016
                                            0.1746  0.1192 -0.0016 -0.0025
    83. (0.00290) RY*( 2) N   7           s(  0.30%)p99.99( 98.78%)d 3.05(  0.92%)
                                            0.0000 -0.0020 -0.0247  0.0459 -0.0173
                                           -0.0307  0.7447  0.0252  0.0218 -0.6529
                                            0.0510  0.0000 -0.0474 -0.0003 -0.0830
                                           -0.0082 -0.0052 -0.0168  0.0440
    84. (0.00103) RY*( 3) N   7           s(  3.75%)p25.27( 94.75%)d 0.40(  1.50%)
                                            0.0000 -0.0017  0.1651 -0.0997 -0.0169
                                            0.0247  0.6131 -0.1884  0.0474  0.6595
                                           -0.3132 -0.0004 -0.0156 -0.0020 -0.0670
                                           -0.0028  0.0000  0.0934 -0.0420
    85. (0.00028) RY*( 4) N   7           s( 83.30%)p 0.06(  5.11%)d 0.14( 11.59%)
                                            0.0000  0.0117  0.8853  0.1629  0.1501
                                           -0.0610 -0.0657  0.0432  0.0248 -0.1119
                                           -0.0995 -0.0038 -0.0765 -0.1108  0.2184
                                            0.0204  0.1183 -0.1739  0.1536
    86. (0.00023) RY*( 5) N   7           s(  2.44%)p14.53( 35.45%)d25.46( 62.11%)
                                            0.0000  0.0021  0.1477  0.0409  0.0299
                                           -0.0107 -0.0068  0.0001  0.0049 -0.0150
                                           -0.0149  0.0136  0.1278  0.5808  0.0455
                                           -0.2219 -0.7532 -0.0346  0.0358
    87. (0.00012) RY*( 6) N   7           s(  6.47%)p10.98( 71.00%)d 3.48( 22.54%)
                                            0.0000 -0.0091 -0.0181  0.2273 -0.1122
                                            0.0080 -0.0658  0.6291 -0.0262 -0.0201
                                           -0.5556 -0.0001 -0.0044  0.0004 -0.4530
                                           -0.0059 -0.0085 -0.1163 -0.0805
    88. (0.00008) RY*( 7) N   7           s( 41.72%)p 0.13(  5.54%)d 1.26( 52.73%)
    89. (0.00003) RY*( 8) N   7           s( 21.81%)p 1.21( 26.47%)d 2.37( 51.72%)
    90. (0.00001) RY*( 9) N   7           s(  0.13%)p99.99( 63.21%)d99.99( 36.66%)
    91. (0.00000) RY*(10) N   7           s( 94.33%)p 0.03(  3.21%)d 0.03(  2.46%)
    92. (0.00000) RY*(11) N   7           s(  0.09%)p51.60(  4.58%)d99.99( 95.33%)
    93. (0.00000) RY*(12) N   7           s( 25.98%)p 2.28( 59.35%)d 0.56( 14.66%)
    94. (0.00001) RY*(13) N   7           s( 17.04%)p 2.20( 37.44%)d 2.67( 45.52%)
    95. (0.00001) RY*(14) N   7           s(  2.05%)p 0.47(  0.97%)d47.31( 96.98%)
    96. (0.00038) RY*( 1) H   8           s(100.00%)
                                           -0.0049  1.0000
    97. (0.03528) BD*( 1) C   1 - S   4  
                ( 49.85%)   0.7060* C   1 s( 29.01%)p 2.44( 70.87%)d 0.00(  0.13%)
                                           -0.0001 -0.5380 -0.0228 -0.0097  0.0027
                                            0.6091 -0.0622 -0.0006 -0.5770  0.0041
                                            0.0305  0.0008  0.0000  0.0000  0.0311
                                            0.0000  0.0001  0.0020  0.0168
                ( 50.15%)  -0.7082* S   4 s( 18.24%)p 4.45( 81.18%)d 0.03(  0.58%)
                                            0.0000  0.0000 -0.4236  0.0543  0.0028
                                           -0.0004  0.0000 -0.5434  0.0218  0.0012
                                            0.0000  0.7145 -0.0720  0.0185  0.0000
                                           -0.0007  0.0001  0.0000  0.0680  0.0000
                                            0.0000 -0.0010  0.0336
    98. (0.00736) BD*( 1) C   1 - N   7  
                ( 59.17%)   0.7692* C   1 s( 35.61%)p 1.81( 64.34%)d 0.00(  0.05%)
                                            0.0002  0.5956 -0.0373 -0.0021  0.0020
                                            0.7541 -0.0994  0.0291  0.2519  0.0027
                                           -0.0249 -0.0007  0.0002  0.0000  0.0115
                                           -0.0001  0.0000  0.0148 -0.0125
                ( 40.83%)  -0.6390* N   7 s( 37.77%)p 1.64( 61.98%)d 0.01(  0.25%)
                                           -0.0001  0.6136 -0.0339  0.0047 -0.0014
                                           -0.7112  0.0191  0.0124 -0.3346  0.0390
                                           -0.0050  0.0007 -0.0001  0.0000  0.0136
                                           -0.0001  0.0000  0.0366 -0.0317
    99. (0.01029) BD*( 1) C   1 - H   8  
                ( 38.74%)   0.6224* C   1 s( 35.34%)p 1.83( 64.61%)d 0.00(  0.05%)
                                           -0.0003  0.5944  0.0101 -0.0082  0.0013
                                           -0.2102 -0.0019  0.0072 -0.7752  0.0284
                                            0.0100 -0.0053 -0.0007 -0.0001  0.0107
                                            0.0000  0.0000 -0.0174 -0.0065
                ( 61.26%)  -0.7827* H   8 s(100.00%)
                                            1.0000  0.0049
   100. (0.01409) BD*( 1) C   2 - C   3  
                ( 51.01%)   0.7142* C   2 s( 37.73%)p 1.65( 62.22%)d 0.00(  0.04%)
                                            0.0000  0.6142 -0.0069 -0.0040  0.0020
                                           -0.6834  0.0217  0.0134  0.3910 -0.0410
                                            0.0075  0.0001 -0.0001  0.0000 -0.0133
                                            0.0000  0.0000  0.0131 -0.0096
                ( 48.99%)  -0.6999* C   3 s( 39.26%)p 1.55( 60.70%)d 0.00(  0.04%)
                                            0.0001  0.6265 -0.0059  0.0035  0.0037
                                            0.7073 -0.0576  0.0141 -0.3208  0.0005
                                            0.0174  0.0003  0.0000  0.0000 -0.0149
                                            0.0000  0.0000  0.0041 -0.0124
   101. (0.01020) BD*( 1) C   2 - H   5  
                ( 39.65%)   0.6297* C   2 s( 32.04%)p 2.12( 67.90%)d 0.00(  0.06%)
                                            0.0005 -0.5657 -0.0172 -0.0020  0.0021
                                           -0.7280  0.0026  0.0128 -0.3856 -0.0079
                                            0.0116 -0.0017 -0.0002 -0.0001 -0.0174
                                            0.0000  0.0001 -0.0129  0.0109
                ( 60.35%)  -0.7769* H   5 s(100.00%)
                                           -1.0000 -0.0030
   102. (0.00804) BD*( 1) C   2 - N   7  
                ( 58.99%)   0.7680* C   2 s( 30.18%)p 2.31( 69.76%)d 0.00(  0.06%)
                                            0.0001  0.5490 -0.0194  0.0012  0.0002
                                            0.0136 -0.0441  0.0246 -0.8307  0.0605
                                            0.0024 -0.0334 -0.0027 -0.0008  0.0003
                                            0.0000  0.0010 -0.0210 -0.0134
                ( 41.01%)  -0.6404* N   7 s( 32.62%)p 2.06( 67.17%)d 0.01(  0.21%)
                                           -0.0003  0.5705 -0.0276 -0.0048  0.0017
                                            0.1095 -0.0382  0.0047  0.8102 -0.0227
                                           -0.0134 -0.0324 -0.0005 -0.0002 -0.0151
                                            0.0009 -0.0010 -0.0330 -0.0275
   103. (0.25923) BD*( 2) C   2 - N   7  
                ( 57.86%)   0.7607* C   2 s(  0.03%)p99.99( 99.89%)d 2.35(  0.07%)
                                            0.0000  0.0174  0.0009 -0.0032  0.0014
                                           -0.0007 -0.0005  0.0022 -0.0286  0.0024
                                            0.0001  0.9955  0.0816  0.0220  0.0000
                                           -0.0024 -0.0271 -0.0006 -0.0002
                ( 42.14%)  -0.6491* N   7 s(  0.03%)p99.99( 99.76%)d 6.20(  0.20%)
                                            0.0000  0.0180  0.0015 -0.0005  0.0002
                                            0.0038 -0.0007  0.0006  0.0266 -0.0012
                                           -0.0008  0.9983  0.0149  0.0055 -0.0003
                                           -0.0297  0.0339 -0.0011 -0.0010
   104. (0.00789) BD*( 1) C   3 - S   4  
                ( 48.26%)   0.6947* C   3 s( 25.99%)p 2.84( 73.89%)d 0.00(  0.12%)
                                            0.0002 -0.5096 -0.0052  0.0121  0.0029
                                            0.6823 -0.0562  0.0071  0.5190 -0.0018
                                           -0.0279  0.0009 -0.0001  0.0000 -0.0290
                                            0.0000  0.0000 -0.0008  0.0195
                ( 51.74%)  -0.7193* S   4 s( 19.04%)p 4.22( 80.35%)d 0.03(  0.61%)
                                            0.0000 -0.0001 -0.4312  0.0667  0.0033
                                            0.0004  0.0000 -0.5730  0.0278  0.0009
                                            0.0000 -0.6843  0.0765 -0.0192  0.0000
                                            0.0001  0.0001  0.0001 -0.0692  0.0000
                                            0.0000 -0.0059  0.0354
   105. (0.00655) BD*( 1) C   3 - H   6  
                ( 38.13%)   0.6175* C   3 s( 34.65%)p 1.88( 65.31%)d 0.00(  0.04%)
                                            0.0003 -0.5886 -0.0009 -0.0072  0.0008
                                            0.1623 -0.0051 -0.0018 -0.7911  0.0279
[...]
 ===================================================================================================

 within unit  1
   1. BD (   1) C   1 - S   4        / 53. RY*(   3) C   3                    0.34    1.27    0.026
   1. BD (   1) C   1 - S   4        / 81. RY*(   1) N   7                    0.63    1.25    0.035
   1. BD (   1) C   1 - S   4        / 82. RY*(   2) N   7                    0.62    1.66    0.040
   1. BD (   1) C   1 - S   4        /100. BD*(   1) C   2 - C   3            0.35    1.24    0.026
   1. BD (   1) C   1 - S   4        /102. BD*(   1) C   2 - H   5            0.33    1.09    0.024
   1. BD (   1) C   1 - S   4        /105. BD*(   1) C   3 - H   6            1.92    1.10    0.058
   2. BD (   1) C   1 - N   7        / 37. RY*(   1) C   2                    0.26    1.53    0.025
   2. BD (   1) C   1 - N   7        / 38. RY*(   2) C   2                    1.34    1.91    0.064
   2. BD (   1) C   1 - N   7        / 99. BD*(   1) C   1 - H   8            0.78    1.29    0.040
   2. BD (   1) C   1 - N   7        /102. BD*(   1) C   2 - H   5            1.52    1.29    0.056
   2. BD (   1) C   1 - N   7        /103. BD*(   1) C   2 - N   7            0.67    1.34    0.038
   3. BD (   2) C   1 - N   7        / 39. RY*(   3) C   2                    1.41    0.89    0.046
   3. BD (   2) C   1 - N   7        / 46. RY*(  10) C   2                    0.39    0.84    0.024
   3. BD (   2) C   1 - N   7        / 67. RY*(   3) S   4                    0.91    0.91    0.037
   3. BD (   2) C   1 - N   7        /101. BD*(   2) C   2 - C   3            9.67    0.31    0.073
   4. BD (   1) C   1 - H   8        / 81. RY*(   1) N   7                    0.49    1.15    0.030
   4. BD (   1) C   1 - H   8        / 97. BD*(   1) C   1 - N   7            0.69    1.14    0.035
   4. BD (   1) C   1 - H   8        /103. BD*(   1) C   2 - N   7            2.08    1.03    0.058
   5. BD (   1) C   2 - C   3        / 66. RY*(   2) S   4                    0.31    1.19    0.024
   5. BD (   1) C   2 - C   3        / 82. RY*(   2) N   7                    0.52    1.74    0.038
   5. BD (   1) C   2 - C   3        /102. BD*(   1) C   2 - H   5            0.84    1.17    0.040
   5. BD (   1) C   2 - C   3        /103. BD*(   1) C   2 - N   7            0.44    1.22    0.029
   5. BD (   1) C   2 - C   3        /105. BD*(   1) C   3 - H   6            1.19    1.18    0.047
   6. BD (   2) C   2 - C   3        / 65. RY*(   1) S   4                    1.40    0.85    0.045
   6. BD (   2) C   2 - C   3        / 83. RY*(   3) N   7                    0.58    0.65    0.025
   6. BD (   2) C   2 - C   3        / 98. BD*(   2) C   1 - N   7            5.67    0.29    0.054
   7. BD (   1) C   2 - H   5        / 81. RY*(   1) N   7                    0.34    1.15    0.025
   7. BD (   1) C   2 - H   5        / 97. BD*(   1) C   1 - N   7            1.25    1.14    0.048
   7. BD (   1) C   2 - H   5        /100. BD*(   1) C   2 - C   3            0.63    1.14    0.034
   7. BD (   1) C   2 - H   5        /104. BD*(   1) C   3 - S   4            1.89    0.77    0.048
   8. BD (   1) C   2 - N   7        / 23. RY*(   1) C   1                    0.36    1.31    0.027
   8. BD (   1) C   2 - N   7        / 24. RY*(   2) C   1                    1.02    2.01    0.057
   8. BD (   1) C   2 - N   7        / 26. RY*(   4) C   1                    0.37    1.59    0.031
   8. BD (   1) C   2 - N   7        / 97. BD*(   1) C   1 - N   7            0.52    1.36    0.034
   8. BD (   1) C   2 - N   7        / 99. BD*(   1) C   1 - H   8            2.43    1.20    0.068
   8. BD (   1) C   2 - N   7        /100. BD*(   1) C   2 - C   3            0.68    1.36    0.038
   8. BD (   1) C   2 - N   7        /102. BD*(   1) C   2 - H   5            0.26    1.20    0.022
   8. BD (   1) C   2 - N   7        /105. BD*(   1) C   3 - H   6            1.39    1.21    0.052
   9. BD (   1) C   3 - S   4        / 37. RY*(   1) C   2                    0.73    1.33    0.040
   9. BD (   1) C   3 - S   4        / 40. RY*(   4) C   2                    0.27    1.50    0.026
   9. BD (   1) C   3 - S   4        / 97. BD*(   1) C   1 - N   7            0.52    1.25    0.032
   9. BD (   1) C   3 - S   4        / 99. BD*(   1) C   1 - H   8            1.58    1.10    0.052
   9. BD (   1) C   3 - S   4        /102. BD*(   1) C   2 - H   5            2.36    1.10    0.064
   9. BD (   1) C   3 - S   4        /103. BD*(   1) C   2 - N   7            0.46    1.14    0.029
  10. BD (   1) C   3 - H   6        / 38. RY*(   2) C   2                    0.71    1.61    0.043
  10. BD (   1) C   3 - H   6        /100. BD*(   1) C   2 - C   3            1.10    1.15    0.045
  10. BD (   1) C   3 - H   6        /103. BD*(   1) C   2 - N   7            1.66    1.04    0.052
  11. CR (   1) C   1                / 82. RY*(   2) N   7                    0.52   11.10    0.096
  11. CR (   1) C   1                / 96. BD*(   1) C   1 - S   4            0.39   10.31    0.081
  11. CR (   1) C   1                /103. BD*(   1) C   2 - N   7            0.69   10.58    0.108
  12. CR (   1) C   2                / 53. RY*(   3) C   3                    1.04   10.69    0.133
  12. CR (   1) C   2                / 82. RY*(   2) N   7                    0.40   11.09    0.084
  12. CR (   1) C   2                / 97. BD*(   1) C   1 - N   7            0.43   10.67    0.086
  12. CR (   1) C   2                /100. BD*(   1) C   2 - C   3            0.59   10.67    0.101
  12. CR (   1) C   2                /104. BD*(   1) C   3 - S   4            0.26   10.30    0.066
  12. CR (   1) C   2                /105. BD*(   1) C   3 - H   6            0.62   10.52    0.103
  13. CR (   1) C   3                / 37. RY*(   1) C   2                    0.43   10.75    0.086
  13. CR (   1) C   3                / 38. RY*(   2) C   2                    0.94   11.12    0.129
  13. CR (   1) C   3                /100. BD*(   1) C   2 - C   3            0.62   10.66    0.103
  13. CR (   1) C   3                /102. BD*(   1) C   2 - H   5            0.52   10.51    0.094
  13. CR (   1) C   3                /104. BD*(   1) C   3 - S   4            0.33   10.30    0.074
  15. CR (   2) S   4                / 23. RY*(   1) C   1                    0.40    9.37    0.078
  15. CR (   2) S   4                / 24. RY*(   2) C   1                    0.45   10.07    0.085
  15. CR (   2) S   4                / 51. RY*(   1) C   3                    0.69    9.86    0.105
  15. CR (   2) S   4                / 99. BD*(   1) C   1 - H   8            0.35    9.27    0.072
  15. CR (   2) S   4                /105. BD*(   1) C   3 - H   6            0.45    9.27    0.082
  19. CR (   1) N   7                / 23. RY*(   1) C   1                    1.46   14.67    0.185
  19. CR (   1) N   7                / 28. RY*(   6) C   1                    0.34   15.31    0.091
  19. CR (   1) N   7                / 37. RY*(   1) C   2                    1.07   14.80    0.159
  19. CR (   1) N   7                / 96. BD*(   1) C   1 - S   4            0.26   14.34    0.079
  19. CR (   1) N   7                / 99. BD*(   1) C   1 - H   8            0.36   14.56    0.092
  20. LP (   1) S   4                / 24. RY*(   2) C   1                    0.48    1.87    0.038
  20. LP (   1) S   4                / 51. RY*(   1) C   3                    0.75    1.66    0.045
  20. LP (   1) S   4                / 97. BD*(   1) C   1 - N   7            1.38    1.22    0.052
  20. LP (   1) S   4                /100. BD*(   1) C   2 - C   3            0.91    1.22    0.042
  21. LP (   2) S   4                / 27. RY*(   5) C   1                    0.29    1.84    0.032
  21. LP (   2) S   4                / 52. RY*(   2) C   3                    0.81    0.42    0.026
  21. LP (   2) S   4                / 67. RY*(   3) S   4                    0.33    0.86    0.023
  21. LP (   2) S   4                / 98. BD*(   2) C   1 - N   7           13.70    0.26    0.077
  21. LP (   2) S   4                /101. BD*(   2) C   2 - C   3           10.82    0.26    0.069
  22. LP (   1) N   7                / 23. RY*(   1) C   1                    2.22    0.89    0.058
  22. LP (   1) N   7                / 24. RY*(   2) C   1                    0.47    1.59    0.035
  22. LP (   1) N   7                / 37. RY*(   1) C   2                    1.92    1.02    0.057
  22. LP (   1) N   7                / 96. BD*(   1) C   1 - S   4            7.71    0.56    0.084
  22. LP (   1) N   7                / 99. BD*(   1) C   1 - H   8            1.16    0.79    0.039
  22. LP (   1) N   7                /100. BD*(   1) C   2 - C   3            3.12    0.94    0.070
  22. LP (   1) N   7                /102. BD*(   1) C   2 - H   5            0.85    0.79    0.033
  22. LP (   1) N   7                /105. BD*(   1) C   3 - H   6            0.26    0.80    0.019
  96. BD*(   1) C   1 - S   4        / 23. RY*(   1) C   1                    0.26    0.33    0.059
  96. BD*(   1) C   1 - S   4        / 26. RY*(   4) C   1                    0.29    0.62    0.091
  96. BD*(   1) C   1 - S   4        / 66. RY*(   2) S   4                    1.81    0.25    0.140
  96. BD*(   1) C   1 - S   4        / 68. RY*(   4) S   4                    0.84    0.55    0.144
  96. BD*(   1) C   1 - S   4        / 74. RY*(  10) S   4                    0.32    0.23    0.059
  96. BD*(   1) C   1 - S   4        / 99. BD*(   1) C   1 - H   8            0.26    0.22    0.046
  96. BD*(   1) C   1 - S   4        /104. BD*(   1) C   3 - S   4            1.99    0.01    0.031
  98. BD*(   2) C   1 - N   7        / 25. RY*(   3) C   1                    2.21    0.37    0.094
  98. BD*(   2) C   1 - N   7        / 67. RY*(   3) S   4                    0.44    0.59    0.053
  98. BD*(   2) C   1 - N   7        / 83. RY*(   3) N   7                    0.82    0.36    0.056
 101. BD*(   2) C   2 - C   3        / 39. RY*(   3) C   2                    0.30    0.58    0.045
 101. BD*(   2) C   2 - C   3        / 41. RY*(   5) C   2                    0.34    1.70    0.082
 101. BD*(   2) C   2 - C   3        / 52. RY*(   2) C   3                    1.24    0.16    0.048
 101. BD*(   2) C   2 - C   3        / 54. RY*(   4) C   3                    0.34    1.58    0.080
 101. BD*(   2) C   2 - C   3        / 65. RY*(   1) S   4                    0.37    0.56    0.049


 Natural Bond Orbitals (Summary):

                                                            Principal Delocalizations
           NBO                        Occupancy    Energy   (geminal,vicinal,remote)
 ====================================================================================
 Molecular unit  1  (C3H3NS)
     1. BD (   1) C   1 - S   4          0.99328    -0.45361  105(v),81(v),82(v),100(v)
                                                    53(v),102(r)
     2. BD (   1) C   1 - N   7          0.99436    -0.65628  102(v),38(v),99(g),103(g)
                                                    37(v)
     3. BD (   2) C   1 - N   7          0.94250    -0.09907  101(v),39(v),67(v),46(v)
     4. BD (   1) C   1 - H   8          0.99276    -0.34928  103(v),97(g),81(v)
     5. BD (   1) C   2 - C   3          0.99467    -0.53385  105(g),102(g),82(v),103(g)
                                                    66(v)
     6. BD (   2) C   2 - C   3          0.94929    -0.07237  98(v),65(v),83(v)
     7. BD (   1) C   2 - H   5          0.98983    -0.34958  104(v),97(v),100(g),81(v)
     8. BD (   1) C   2 - N   7          0.99039    -0.56756  99(v),105(v),24(v),100(g)
                                                    97(g),26(v),23(v),102(g)
     9. BD (   1) C   3 - S   4          0.99007    -0.46060  102(v),99(v),37(v),97(v)
                                                    103(v),40(v)
    10. BD (   1) C   3 - H   6          0.99256    -0.35921  103(v),100(g),38(v)
    11. CR (   1) C   1                  0.99971    -9.89782  103(v),82(v),96(g)
    12. CR (   1) C   2                  0.99953    -9.87920  53(v),105(v),100(g),97(v)
                                                    82(v),104(v)
    13. CR (   1) C   3                  0.99954    -9.87453  38(v),100(g),102(v),37(v)
                                                    104(g)
    14. CR (   1) S   4                  1.00000   -87.56478   
    15. CR (   2) S   4                  0.99967    -8.63182  51(v),105(v),24(v),23(v)
                                                    99(v)
    16. CR (   3) S   4                  0.99992    -5.71854   
    17. CR (   4) S   4                  0.99993    -5.72133   
    18. CR (   5) S   4                  0.99997    -5.71457   
    19. CR (   1) N   7                  0.99970   -13.92798  23(v),37(v),99(v),28(v)
                                                    96(v)
    20. LP (   1) S   4                  0.99145    -0.43652  97(v),100(v),51(v),24(v)
    21. LP (   2) S   4                  0.81693    -0.04442  98(v),101(v),52(v),67(g)
                                                    27(v)
    22. LP (   1) N   7                  0.94416    -0.15292  96(v),100(v),23(v),37(v)
                                                    99(v),102(v),24(v),105(r)
    23. RY*(   1) C   1                  0.00456     0.74098   
    24. RY*(   2) C   1                  0.00238     1.43842   
    25. RY*(   3) C   1                  0.00226     0.58697   
    26. RY*(   4) C   1                  0.00049     1.02708   
    27. RY*(   5) C   1                  0.00047     1.79941   
    28. RY*(   6) C   1                  0.00022     1.38370   
    29. RY*(   7) C   1                  0.00005     1.06678   
    30. RY*(   8) C   1                  0.00004     0.81832   
    31. RY*(   9) C   1                  0.00002     1.58290   
    32. RY*(  10) C   1                  0.00000     3.80929   
    33. RY*(  11) C   1                  0.00000     1.05542   
    34. RY*(  12) C   1                  0.00000     1.94888   
    35. RY*(  13) C   1                  0.00000     2.09882   
    36. RY*(  14) C   1                  0.00001     2.28607   
    37. RY*(   1) C   2                  0.00398     0.87118   
    38. RY*(   2) C   2                  0.00280     1.25001   
    39. RY*(   3) C   2                  0.00135     0.79138   
    40. RY*(   4) C   2                  0.00053     1.03744   
    41. RY*(   5) C   2                  0.00031     1.91170   
    42. RY*(   6) C   2                  0.00022     0.88391   
    43. RY*(   7) C   2                  0.00009     2.10573   
    44. RY*(   8) C   2                  0.00006     2.38994   
    45. RY*(   9) C   2                  0.00001     1.96284   
    46. RY*(  10) C   2                  0.00000     0.74128   
    47. RY*(  11) C   2                  0.00000     1.97459   
    48. RY*(  12) C   2                  0.00001     0.65357   
    49. RY*(  13) C   2                  0.00001     2.92427   
    50. RY*(  14) C   2                  0.00000     2.49215   
    51. RY*(   1) C   3                  0.00173     1.22519   
    52. RY*(   2) C   3                  0.00128     0.37761   
    53. RY*(   3) C   3                  0.00116     0.81195   
    54. RY*(   4) C   3                  0.00038     1.79081   
    55. RY*(   5) C   3                  0.00032     1.09442   
    56. RY*(   6) C   3                  0.00027     0.73223   
    57. RY*(   7) C   3                  0.00006     1.04130   
    58. RY*(   8) C   3                  0.00003     2.10168   
    59. RY*(   9) C   3                  0.00002     0.75031   
    60. RY*(  10) C   3                  0.00000     2.19885   
    61. RY*(  11) C   3                  0.00000     3.86245   
    62. RY*(  12) C   3                  0.00000     1.89040   
    63. RY*(  13) C   3                  0.00000     1.11473   
    64. RY*(  14) C   3                  0.00001     2.36294   
    65. RY*(   1) S   4                  0.00284     0.77636   
    66. RY*(   2) S   4                  0.00227     0.65915   
    67. RY*(   3) S   4                  0.00129     0.81215   
    68. RY*(   4) S   4                  0.00103     0.95836   
    69. RY*(   5) S   4                  0.00037     0.77538   
    70. RY*(   6) S   4                  0.00028     0.58822   
    71. RY*(   7) S   4                  0.00017     0.80801   
    72. RY*(   8) S   4                  0.00004     0.33148   
    73. RY*(   9) S   4                  0.00001     0.90741   
    74. RY*(  10) S   4                  0.00001     0.64172   
    75. RY*(  11) S   4                  0.00000     0.87793   
    76. RY*(  12) S   4                  0.00000     0.51509   
    77. RY*(  13) S   4                  0.00000     3.78405   
    78. RY*(  14) S   4                  0.00001     1.21465   
    79. RY*(   1) H   5                  0.00051     0.71193   
    80. RY*(   1) H   6                  0.00050     0.71045   
    81. RY*(   1) N   7                  0.00289     0.79769   
    82. RY*(   2) N   7                  0.00106     1.20591   
    83. RY*(   3) N   7                  0.00065     0.57333   
    84. RY*(   4) N   7                  0.00029     1.03599   
    85. RY*(   5) N   7                  0.00014     1.18286   
    86. RY*(   6) N   7                  0.00008     2.16425   
    87. RY*(   7) N   7                  0.00008     1.90263   
    88. RY*(   8) N   7                  0.00002     2.25090   
    89. RY*(   9) N   7                  0.00001     2.34940   
    90. RY*(  10) N   7                  0.00001     1.79984   
    91. RY*(  11) N   7                  0.00000     1.94340   
    92. RY*(  12) N   7                  0.00000     1.05499   
    93. RY*(  13) N   7                  0.00000     3.49973   
    94. RY*(  14) N   7                  0.00000     1.09522   
    95. RY*(   1) H   8                  0.00038     0.74482   
    96. BD*(   1) C   1 - S   4          0.03425     0.41081   
    97. BD*(   1) C   1 - N   7          0.00745     0.78808   
    98. BD*(   2) C   1 - N   7          0.14472     0.21766  101(v),25(g),83(g),67(v)
    99. BD*(   1) C   1 - H   8          0.01076     0.63534   
   100. BD*(   1) C   2 - C   3          0.01408     0.78780   
   101. BD*(   2) C   2 - C   3          0.13569     0.21574  98(v),52(g),65(v),54(g)
                                                    41(g),39(g)
   102. BD*(   1) C   2 - H   5          0.01044     0.63561   
   103. BD*(   1) C   2 - N   7          0.00775     0.68252   
   104. BD*(   1) C   3 - S   4          0.00777     0.42378   
   105. BD*(   1) C   3 - H   6          0.00678     0.64249   
       -------------------------------
              Total Lewis   21.58021  ( 98.0919%)
        Valence non-Lewis    0.37969  (  1.7258%)
        Rydberg non-Lewis    0.04010  (  0.1823%)
       -------------------------------
            Total unit  1   22.00000  (100.0000%)
           Charge unit  1    0.00000
 1\1\GINC-LOCALHOST\SP\UB3LYP\6-31+G(d)\C3H3N1S1(1-,2)\PVBHARATAM\14-Ma
 r-2001\0\\# b3lyp/6-31+g(d) pop=nbo\\TZ-1\\-1,2\C,0,0.028965,-1.20846,
 0.000719\C,0,1.292481,0.595784,0.000343\C,0,0.077181,1.223599,0.00003\
 S,0,-1.191905,0.042668,-0.000128\H,0,2.252746,1.098514,0.000422\H,0,-0
 .135885,2.284053,-0.000105\N,0,1.258973,-0.782207,-0.000702\H,0,-0.250
 952,-2.255346,0.000096\\Version=EM64L-G09RevB.01\State=2-A\HF=-569.020
 8936\S2=0.758885\S2-1=0.\S2A=0.75003\RMSD=2.287e-09\Dipole=-0.4072035,
 0.5034474,-0.0003569\Quadrupole=-2.8563272,2.2813961,0.574931,2.811385
 3,0.0413566,0.0003438\PG=C01 [X(C3H3N1S1)]\\@


 WAR ES EIN GOTT DER DIESE ZEICHEN SCHRIEB?
          - LUDWIG BOLTZMANN, QUOTING GOETHE, ABOUT MAXWELL'S EQUATIONS.
 Job cpu time:  0 days  0 hours  1 minutes 45.3 seconds.
 File lengths (MBytes):  RWF=     10 Int=      0 D2E=      0 Chk=      2 Scr=      1
 Normal termination of Gaussian 09 at Wed Mar 14 22:10:03 2001.
