 Entering Gaussian System, Link 0=g09
 Input=TZ.gjf
 Output=TZ.log
 Initial command:
 /home/pvbharatam/guass/g09/l1.exe /home/pvbharatam/GAUSS_SCRDIR/Gau-1904.inp -scrdir=/home/pvbharatam/GAUSS_SCRDIR/
 Entering Link 1 = /home/pvbharatam/guass/g09/l1.exe PID=      1905.
  
 Copyright (c) 1988,1990,1992,1993,1995,1998,2003,2009,2010,
            Gaussian, Inc.  All Rights Reserved.
  
 This is part of the Gaussian(R) 09 program.  It is based on
 the Gaussian(R) 03 system (copyright 2003, Gaussian, Inc.),
 the Gaussian(R) 98 system (copyright 1998, Gaussian, Inc.),
 the Gaussian(R) 94 system (copyright 1995, Gaussian, Inc.),
 the Gaussian 92(TM) system (copyright 1992, Gaussian, Inc.),
 the Gaussian 90(TM) system (copyright 1990, Gaussian, Inc.),
 the Gaussian 88(TM) system (copyright 1988, Gaussian, Inc.),
 the Gaussian 86(TM) system (copyright 1986, Carnegie Mellon
 University), and the Gaussian 82(TM) system (copyright 1983,
 Carnegie Mellon University). Gaussian is a federally registered
 trademark of Gaussian, Inc.
  
 This software contains proprietary and confidential information,
 including trade secrets, belonging to Gaussian, Inc.
  
 This software is provided under written license and may be
 used, copied, transmitted, or stored only in accord with that
 written license.
  
 The following legend is applicable only to US Government
 contracts under FAR:
  
                    RESTRICTED RIGHTS LEGEND
  
 Use, reproduction and disclosure by the US Government is
 subject to restrictions as set forth in subparagraphs (a)
 and (c) of the Commercial Computer Software - Restricted
 Rights clause in FAR 52.227-19.
  
 Gaussian, Inc.
 340 Quinnipiac St., Bldg. 40, Wallingford CT 06492
  
  
 ---------------------------------------------------------------
 Warning -- This program may not be used in any manner that
 competes with the business of Gaussian, Inc. or will provide
 assistance to any competitor of Gaussian, Inc.  The licensee
 of this program is prohibited from giving any competitor of
 Gaussian, Inc. access to this program.  By using this program,
 the user acknowledges that Gaussian, Inc. is engaged in the
 business of creating and licensing software in the field of
 computational chemistry and represents and warrants to the
 licensee that it is not a competitor of Gaussian, Inc. and that
 it will not use this program in any manner prohibited above.
 ---------------------------------------------------------------
  

 Cite this work as:
 Gaussian 09, Revision B.01,
 M. J. Frisch, G. W. Trucks, H. B. Schlegel, G. E. Scuseria, 
 M. A. Robb, J. R. Cheeseman, G. Scalmani, V. Barone, B. Mennucci, 
 G. A. Petersson, H. Nakatsuji, M. Caricato, X. Li, H. P. Hratchian, 
 A. F. Izmaylov, J. Bloino, G. Zheng, J. L. Sonnenberg, M. Hada, 
 M. Ehara, K. Toyota, R. Fukuda, J. Hasegawa, M. Ishida, T. Nakajima, 
 Y. Honda, O. Kitao, H. Nakai, T. Vreven, J. A. Montgomery, Jr., 
 J. E. Peralta, F. Ogliaro, M. Bearpark, J. J. Heyd, E. Brothers, 
 K. N. Kudin, V. N. Staroverov, T. Keith, R. Kobayashi, J. Normand, 
 K. Raghavachari, A. Rendell, J. C. Burant, S. S. Iyengar, J. Tomasi, 
 M. Cossi, N. Rega, J. M. Millam, M. Klene, J. E. Knox, J. B. Cross, 
 V. Bakken, C. Adamo, J. Jaramillo, R. Gomperts, R. E. Stratmann, 
 O. Yazyev, A. J. Austin, R. Cammi, C. Pomelli, J. W. Ochterski, 
 R. L. Martin, K. Morokuma, V. G. Zakrzewski, G. A. Voth, 
 P. Salvador, J. J. Dannenberg, S. Dapprich, A. D. Daniels, 
 O. Farkas, J. B. Foresman, J. V. Ortiz, J. Cioslowski, 
 and D. J. Fox, Gaussian, Inc., Wallingford CT, 2010.
 
 ******************************************
 Gaussian 09:  EM64L-G09RevB.01 12-Aug-2010
                25-Feb-2021 
 ******************************************
 %nprocshared=8
 Will use up to    8 processors via shared memory.
 %mem=8GB
 %chk=ATZ.chk
 ------------------------------------------
 # opt freq=noraman b3lyp/6-31+g(d) pop=nbo
 ------------------------------------------
 1/14=-1,18=20,19=15,26=3,38=1/1,3;
 2/9=110,12=2,17=6,18=5,40=1/2;
 3/5=1,6=6,7=11,11=2,16=1,25=1,30=1,71=1,74=-5/1,2,3;
 4//1;
 5/5=2,38=5/2;
 6/7=2,8=2,9=2,10=2,28=1/1,7;
 7//1,2,3,16;
 1/14=-1,18=20,19=15/3(2);
 2/9=110/2;
 99//99;
 2/9=110/2;
 3/5=1,6=6,7=11,11=2,16=1,25=1,30=1,71=1,74=-5/1,2,3;
 4/5=5,16=3/1;
 5/5=2,38=5/2;
 7//1,2,3,16;
 1/14=-1,18=20,19=15/3(-5);
 2/9=110/2;
 6/7=2,8=2,9=2,10=2,19=2,28=1/1,7;
 99/9=1/99;
 ---
 ATZ
 ---
 Symbolic Z-matrix:
 Charge =  0 Multiplicity = 1
 C                     0.77966   0.21157   0.00171 
 C                    -1.21145   1.16451   0.00361 
 C                    -1.64792  -0.1251    0.00853 
 S                    -0.27291  -1.20887  -0.0071 
 H                    -1.85828   2.03467   0.00913 
 H                    -2.66018  -0.50449   0.02573 
 N                     0.15632   1.35629   0.00353 
 H                     1.84707   0.1372    0.00528 
 

 GradGradGradGradGradGradGradGradGradGradGradGradGradGradGradGradGradGrad
 Berny optimization.
 Initialization pass.
                           ----------------------------
                           !    Initial Parameters    !
                           ! (Angstroms and Degrees)  !
 --------------------------                            --------------------------
 ! Name  Definition              Value          Derivative Info.                !
 --------------------------------------------------------------------------------
 ! R1    R(1,4)                  1.7679         estimate D2E/DX2                !
 ! R2    R(1,7)                  1.3034         estimate D2E/DX2                !
 ! R3    R(1,8)                  1.07           estimate D2E/DX2                !
 ! R4    R(2,3)                  1.3615         estimate D2E/DX2                !
 ! R5    R(2,5)                  1.0843         estimate D2E/DX2                !
 ! R6    R(2,7)                  1.3811         estimate D2E/DX2                !
 ! R7    R(3,4)                  1.7508         estimate D2E/DX2                !
 ! R8    R(3,6)                  1.0812         estimate D2E/DX2                !
 ! A1    A(4,1,7)              114.891          estimate D2E/DX2                !
 ! A2    A(4,1,8)              122.5545         estimate D2E/DX2                !
 ! A3    A(7,1,8)              122.5545         estimate D2E/DX2                !
 ! A4    A(3,2,5)              124.6743         estimate D2E/DX2                !
 ! A5    A(3,2,7)              116.6801         estimate D2E/DX2                !
 ! A6    A(5,2,7)              118.643          estimate D2E/DX2                !
 ! A7    A(2,3,4)              109.5434         estimate D2E/DX2                !
 ! A8    A(2,3,6)              129.2424         estimate D2E/DX2                !
 ! A9    A(4,3,6)              121.2131         estimate D2E/DX2                !
 ! A10   A(1,4,3)               88.2919         estimate D2E/DX2                !
 ! A11   A(1,7,2)              110.5881         estimate D2E/DX2                !
 ! D1    D(7,1,4,3)             -0.5476         estimate D2E/DX2                !
 ! D2    D(8,1,4,3)            179.4524         estimate D2E/DX2                !
 ! D3    D(4,1,7,2)              0.2513         estimate D2E/DX2                !
 ! D4    D(8,1,7,2)           -179.7487         estimate D2E/DX2                !
 ! D5    D(5,2,3,4)            179.8814         estimate D2E/DX2                !
 ! D6    D(5,2,3,6)             -0.5106         estimate D2E/DX2                !
 ! D7    D(7,2,3,4)             -0.7166         estimate D2E/DX2                !
 ! D8    D(7,2,3,6)            178.8913         estimate D2E/DX2                !
 ! D9    D(3,2,7,1)              0.3142         estimate D2E/DX2                !
 ! D10   D(5,2,7,1)            179.7538         estimate D2E/DX2                !
 ! D11   D(2,3,4,1)              0.6718         estimate D2E/DX2                !
 ! D12   D(6,3,4,1)           -178.9732         estimate D2E/DX2                !
 --------------------------------------------------------------------------------
 Trust Radius=3.00D-01 FncErr=1.00D-07 GrdErr=1.00D-06
 Number of steps in this run=     41 maximum allowed number of steps=    100.
 GradGradGradGradGradGradGradGradGradGradGradGradGradGradGradGradGradGrad

                          Input orientation:                          
 ---------------------------------------------------------------------
 Center     Atomic      Atomic             Coordinates (Angstroms)
 Number     Number       Type             X           Y           Z
 ---------------------------------------------------------------------
      1          6           0        0.779662    0.211569    0.001711
      2          6           0       -1.211446    1.164509    0.003609
      3          6           0       -1.647918   -0.125100    0.008528
      4         16           0       -0.272912   -1.208867   -0.007103
      5          1           0       -1.858278    2.034672    0.009126
      6          1           0       -2.660178   -0.504491    0.025734
      7          7           0        0.156322    1.356291    0.003530
      8          1           0        1.847069    0.137205    0.005280
 ---------------------------------------------------------------------
                    Distance matrix (angstroms):
                    1          2          3          4          5
     1  C    0.000000
     2  C    2.207399   0.000000
     3  C    2.450824   1.361478   0.000000
     4  S    1.767945   2.552229   1.750839   0.000000
     5  H    3.206632   1.084254   2.169992   3.610290   0.000000
     6  H    3.513662   2.210175   1.081159   2.489229   2.662831
     7  N    1.303436   1.381148   2.334486   2.600844   2.125758
     8  H    1.070000   3.226433   3.504818   2.511251   4.162931
                    6          7          8
     6  H    0.000000
     7  N    3.375748   0.000000
     8  H    4.552743   2.084418   0.000000
 Stoichiometry    C3H3NS
 Framework group  C1[X(C3H3NS)]
 Deg. of freedom    18
 Full point group                 C1      NOp   1
 Largest Abelian subgroup         C1      NOp   1
 Largest concise Abelian subgroup C1      NOp   1
                         Standard orientation:                         
 ---------------------------------------------------------------------
 Center     Atomic      Atomic             Coordinates (Angstroms)
 Number     Number       Type             X           Y           Z
 ---------------------------------------------------------------------
      1          6           0        0.048733   -1.218654    0.004047
      2          6           0        1.283334    0.611182   -0.004432
      3          6           0        0.071699    1.232062    0.004072
      4         16           0       -1.202032    0.030813   -0.002728
      5          1           0        2.238954    1.123428   -0.004478
      6          1           0       -0.155082    2.289058    0.019380
      7          7           0        1.272481   -0.769918   -0.000692
      8          1           0       -0.181327   -2.263602    0.011473
 ---------------------------------------------------------------------
 Rotational constants (GHZ):      8.3734729      5.3767965      3.2743557
 Standard basis: 6-31+G(d) (6D, 7F)
 There are   105 symmetry adapted basis functions of A   symmetry.
 Integral buffers will be    131072 words long.
 Raffenetti 2 integral format.
 Two-electron integral symmetry is turned on.
   105 basis functions,   196 primitive gaussians,   105 cartesian basis functions
    22 alpha electrons       22 beta electrons
       nuclear repulsion energy       203.1949913868 Hartrees.
 NAtoms=    8 NActive=    8 NUniq=    8 SFac= 1.00D+00 NAtFMM=   50 NAOKFM=F Big=F
 One-electron integrals computed using PRISM.
 NBasis=   105 RedAO= T  NBF=   105
 NBsUse=   105 1.00D-06 NBFU=   105
 Harris functional with IExCor=  402 diagonalized for initial guess.
 ExpMin= 4.05D-02 ExpMax= 2.19D+04 ExpMxC= 3.30D+03 IAcc=2 IRadAn=         0 AccDes= 0.00D+00
 HarFok:  IExCor=  402 AccDes= 0.00D+00 IRadAn=         0 IDoV= 1
 ScaDFX=  1.000000  1.000000  1.000000  1.000000
 FoFCou: FMM=F IPFlag=           0 FMFlag=      100000 FMFlg1=           0
         NFxFlg=           0 DoJE=T BraDBF=F KetDBF=T FulRan=T
         Omega=  0.000000  0.000000  1.000000  0.000000  0.000000 ICntrl=     500 IOpCl=  0
         NMat0=    1 NMatS0=    1 NMatT0=    0 NMatD0=    1 NMtDS0=    0 NMtDT0=    0
         I1Cent=           4 NGrid=           0.
 Petite list used in FoFCou.
 Initial guess orbital symmetries:
       Occupied  (A) (A) (A) (A) (A) (A) (A) (A) (A) (A) (A) (A)
                 (A) (A) (A) (A) (A) (A) (A) (A) (A) (A)
       Virtual   (A) (A) (A) (A) (A) (A) (A) (A) (A) (A) (A) (A)
                 (A) (A) (A) (A) (A) (A) (A) (A) (A) (A) (A) (A)
                 (A) (A) (A) (A) (A) (A) (A) (A) (A) (A) (A) (A)
                 (A) (A) (A) (A) (A) (A) (A) (A) (A) (A) (A) (A)
                 (A) (A) (A) (A) (A) (A) (A) (A) (A) (A) (A) (A)
                 (A) (A) (A) (A) (A) (A) (A) (A) (A) (A) (A) (A)
                 (A) (A) (A) (A) (A) (A) (A) (A) (A) (A) (A)
 The electronic state of the initial guess is 1-A.
 Requested convergence on RMS density matrix=1.00D-08 within 128 cycles.
 Requested convergence on MAX density matrix=1.00D-06.
 Requested convergence on             energy=1.00D-06.
 No special actions if energy rises.
 Keep R1 ints in memory in canonical form, NReq=16534283.
 SCF Done:  E(RB3LYP) =  -569.055719889     A.U. after   13 cycles
             Convg  =    0.2747D-08             -V/T =  2.0053

 **********************************************************************

            Population analysis using the SCF density.

 **********************************************************************

 Orbital symmetries:
       Occupied  (A) (A) (A) (A) (A) (A) (A) (A) (A) (A) (A) (A)
                 (A) (A) (A) (A) (A) (A) (A) (A) (A) (A)
       Virtual   (A) (A) (A) (A) (A) (A) (A) (A) (A) (A) (A) (A)
                 (A) (A) (A) (A) (A) (A) (A) (A) (A) (A) (A) (A)
                 (A) (A) (A) (A) (A) (A) (A) (A) (A) (A) (A) (A)
                 (A) (A) (A) (A) (A) (A) (A) (A) (A) (A) (A) (A)
                 (A) (A) (A) (A) (A) (A) (A) (A) (A) (A) (A) (A)
                 (A) (A) (A) (A) (A) (A) (A) (A) (A) (A) (A) (A)
                 (A) (A) (A) (A) (A) (A) (A) (A) (A) (A) (A)
 The electronic state is 1-A.
 Alpha  occ. eigenvalues --  -88.93141 -14.35411 -10.26311 -10.23631 -10.23289
 Alpha  occ. eigenvalues --   -7.99138  -5.95523  -5.95181  -5.94875  -0.97260
 Alpha  occ. eigenvalues --   -0.80802  -0.75356  -0.60916  -0.57975  -0.51885
 Alpha  occ. eigenvalues --   -0.44156  -0.42695  -0.41700  -0.37754  -0.29541
 Alpha  occ. eigenvalues --   -0.28847  -0.26275
 Alpha virt. eigenvalues --   -0.04286  -0.00922   0.00714   0.02473   0.02554
 Alpha virt. eigenvalues --    0.03602   0.04510   0.05510   0.05957   0.07331
 Alpha virt. eigenvalues --    0.08616   0.09548   0.09650   0.11177   0.12743
 Alpha virt. eigenvalues --    0.13752   0.14122   0.15094   0.16442   0.19610
 Alpha virt. eigenvalues --    0.20006   0.21631   0.21690   0.25269   0.25446
 Alpha virt. eigenvalues --    0.26530   0.30112   0.31923   0.36466   0.44211
 Alpha virt. eigenvalues --    0.47666   0.49379   0.51386   0.54068   0.58187
 Alpha virt. eigenvalues --    0.61260   0.63974   0.66071   0.70479   0.77994
 Alpha virt. eigenvalues --    0.80395   0.81038   0.81951   0.88821   0.91115
 Alpha virt. eigenvalues --    0.95002   0.97373   0.98556   0.99041   1.01367
 Alpha virt. eigenvalues --    1.03901   1.04888   1.06903   1.12740   1.15368
 Alpha virt. eigenvalues --    1.20769   1.34561   1.38173   1.42212   1.49517
 Alpha virt. eigenvalues --    1.50483   1.69159   1.75906   1.82857   1.89529
 Alpha virt. eigenvalues --    1.98521   2.04798   2.19543   2.24073   2.28802
 Alpha virt. eigenvalues --    2.29715   2.35269   2.49167   2.50646   2.65087
 Alpha virt. eigenvalues --    2.67887   2.93368   2.98952   3.92307   4.10367
 Alpha virt. eigenvalues --    4.18392   4.31013   4.37337
          Condensed to atoms (all electrons):
              1          2          3          4          5          6
     1  C    5.550680   0.055074  -0.211774   0.122726   0.024803   0.005997
     2  C    0.055074   5.148411   0.401275  -0.081615   0.410454  -0.003034
     3  C   -0.211774   0.401275   5.519730   0.262390  -0.083779   0.328831
     4  S    0.122726  -0.081615   0.262390  15.635598   0.001588  -0.020354
     5  H    0.024803   0.410454  -0.083779   0.001588   0.523511  -0.001146
     6  H    0.005997  -0.003034   0.328831  -0.020354  -0.001146   0.456431
     7  N    0.252476   0.286850   0.005666  -0.022015  -0.070144   0.006010
     8  H    0.406454   0.003800   0.004856  -0.065418  -0.000057  -0.000041
              7          8
     1  C    0.252476   0.406454
     2  C    0.286850   0.003800
     3  C    0.005666   0.004856
     4  S   -0.022015  -0.065418
     5  H   -0.070144  -0.000057
     6  H    0.006010  -0.000041
     7  N    6.764352  -0.065962
     8  H   -0.065962   0.493466
 Mulliken atomic charges:
              1
     1  C   -0.206437
     2  C   -0.221215
     3  C   -0.227195
     4  S    0.167100
     5  H    0.194771
     6  H    0.227305
     7  N   -0.157233
     8  H    0.222904
 Sum of Mulliken atomic charges =   0.00000
 Mulliken charges with hydrogens summed into heavy atoms:
              1
     1  C    0.016467
     2  C   -0.026444
     3  C    0.000110
     4  S    0.167100
     7  N   -0.157233
 Sum of Mulliken charges with hydrogens summed into heavy atoms =   0.00000
 Electronic spatial extent (au):  <R**2>=            386.0549
 Charge=              0.0000 electrons
 Dipole moment (field-independent basis, Debye):
    X=             -1.2034    Y=              1.0576    Z=              0.0157  Tot=              1.6022
 Quadrupole moment (field-independent basis, Debye-Ang):
   XX=            -38.2626   YY=            -31.4504   ZZ=            -38.8684
   XY=              3.6714   XZ=             -0.0002   YZ=              0.0214
 Traceless Quadrupole moment (field-independent basis, Debye-Ang):
   XX=             -2.0688   YY=              4.7434   ZZ=             -2.6746
   XY=              3.6714   XZ=             -0.0002   YZ=              0.0214
 Octapole moment (field-independent basis, Debye-Ang**2):
  XXX=             -2.3812  YYY=              0.1271  ZZZ=              0.0013  XYY=             -5.6262
  XXY=              7.6570  XXZ=             -0.0507  XZZ=             -0.8793  YZZ=             -1.0357
  YYZ=              0.1842  XYZ=             -0.0156
 Hexadecapole moment (field-independent basis, Debye-Ang**3):
 XXXX=           -283.7461 YYYY=           -181.9583 ZZZZ=            -48.6719 XXXY=             18.0288
 XXXZ=              0.0158 YYYX=              4.9647 YYYZ=              0.1610 ZZZX=              0.0199
 ZZZY=              0.0272 XXYY=            -84.7634 XXZZ=            -58.9552 YYZZ=            -48.5950
 XXYZ=             -0.0068 YYXZ=             -0.0081 ZZXY=             -0.3485
 N-N= 2.031949913868D+02 E-N=-1.748492934255D+03  KE= 5.660382975069D+02
 ******************************Gaussian NBO Version 3.1******************************
             N A T U R A L   A T O M I C   O R B I T A L   A N D
          N A T U R A L   B O N D   O R B I T A L   A N A L Y S I S
 ******************************Gaussian NBO Version 3.1******************************
       /RESON  / : Allow strongly delocalized NBO set

 Analyzing the SCF density

 Job title: ATZ                                                             

 Storage needed:     33657 in NPA,     44502 in NBO (1073741440 available)


 NATURAL POPULATIONS:  Natural atomic orbital occupancies 
                                                          
   NAO  Atom  No  lang   Type(AO)    Occupancy      Energy
 ----------------------------------------------------------
     1    C    1  S      Cor( 1S)     1.99941     -10.14860
     2    C    1  S      Val( 2S)     1.03766      -0.29355
     3    C    1  S      Ryd( 4S)     0.00350       0.90629
     4    C    1  S      Ryd( 3S)     0.00043       0.40789
     5    C    1  S      Ryd( 5S)     0.00006       4.01820
     6    C    1  px     Val( 2p)     0.91644      -0.09830
     7    C    1  px     Ryd( 4p)     0.01223       0.53367
     8    C    1  px     Ryd( 3p)     0.00064       0.32305
     9    C    1  py     Val( 2p)     1.15848      -0.12920
    10    C    1  py     Ryd( 4p)     0.00348       0.92536
    11    C    1  py     Ryd( 3p)     0.00091       0.31711
    12    C    1  pz     Val( 2p)     1.02056      -0.16420
    13    C    1  pz     Ryd( 4p)     0.00325       0.46383
    14    C    1  pz     Ryd( 3p)     0.00066       0.29382
    15    C    1  dxy    Ryd( 3d)     0.00183       2.32390
    16    C    1  dxz    Ryd( 3d)     0.00103       2.04298
    17    C    1  dyz    Ryd( 3d)     0.00054       1.72892
    18    C    1  dx2y2  Ryd( 3d)     0.00144       2.36571
    19    C    1  dz2    Ryd( 3d)     0.00070       2.15086

    20    C    2  S      Cor( 1S)     1.99906     -10.09384
    21    C    2  S      Val( 2S)     0.95170      -0.20508
    22    C    2  S      Ryd( 3S)     0.00226       0.84286
    23    C    2  S      Ryd( 4S)     0.00029       0.86233
    24    C    2  S      Ryd( 5S)     0.00006       3.67047
    25    C    2  px     Val( 2p)     1.17339      -0.08446
    26    C    2  px     Ryd( 4p)     0.00679       0.88060
    27    C    2  px     Ryd( 3p)     0.00075       0.30154
    28    C    2  py     Val( 2p)     0.91983      -0.04553
    29    C    2  py     Ryd( 4p)     0.00910       0.69022
    30    C    2  py     Ryd( 3p)     0.00043       0.31430
    31    C    2  pz     Val( 2p)     1.00795      -0.12852
    32    C    2  pz     Ryd( 4p)     0.00192       0.53125
    33    C    2  pz     Ryd( 3p)     0.00049       0.24964
    34    C    2  dxy    Ryd( 3d)     0.00142       2.44850
    35    C    2  dxz    Ryd( 3d)     0.00053       1.83563
    36    C    2  dyz    Ryd( 3d)     0.00082       2.04370
    37    C    2  dx2y2  Ryd( 3d)     0.00096       2.47126
    38    C    2  dz2    Ryd( 3d)     0.00043       2.31978

    39    C    3  S      Cor( 1S)     1.99906     -10.11011
    40    C    3  S      Val( 2S)     1.07150      -0.30015
    41    C    3  S      Ryd( 4S)     0.00134       0.85493
    42    C    3  S      Ryd( 3S)     0.00047       0.48494
    43    C    3  S      Ryd( 5S)     0.00004       4.16711
    44    C    3  px     Val( 2p)     1.04610      -0.13774
    45    C    3  px     Ryd( 4p)     0.00563       0.49820
    46    C    3  px     Ryd( 3p)     0.00035       0.37971
    47    C    3  py     Val( 2p)     1.20108      -0.13011
    48    C    3  py     Ryd( 4p)     0.00251       0.94961
    49    C    3  py     Ryd( 3p)     0.00062       0.33386
    50    C    3  pz     Val( 2p)     1.13112      -0.16224
    51    C    3  pz     Ryd( 4p)     0.00210       0.45359
    52    C    3  pz     Ryd( 3p)     0.00065       0.34256
    53    C    3  dxy    Ryd( 3d)     0.00134       2.25622
    54    C    3  dxz    Ryd( 3d)     0.00067       1.84119
    55    C    3  dyz    Ryd( 3d)     0.00064       1.71538
    56    C    3  dx2y2  Ryd( 3d)     0.00076       2.20215
    57    C    3  dz2    Ryd( 3d)     0.00084       2.11209

    58    S    4  S      Cor( 1S)     2.00000     -87.81212
    59    S    4  S      Cor( 2S)     1.99940      -8.84738
    60    S    4  S      Val( 3S)     1.66698      -0.75611
    61    S    4  S      Ryd( 5S)     0.00573       0.44138
    62    S    4  S      Ryd( 4S)     0.00043       0.29643
    63    S    4  S      Ryd( 6S)     0.00002       3.88189
    64    S    4  px     Cor( 2p)     1.99986      -5.94487
    65    S    4  px     Val( 3p)     1.33616      -0.21879
    66    S    4  px     Ryd( 5p)     0.00166       0.33169
    67    S    4  px     Ryd( 4p)     0.00015       0.17696
    68    S    4  py     Cor( 2p)     1.99987      -5.94791
    69    S    4  py     Val( 3p)     0.94052      -0.19310
    70    S    4  py     Ryd( 5p)     0.00603       0.36629
    71    S    4  py     Ryd( 4p)     0.00012       0.21471
    72    S    4  pz     Cor( 2p)     1.99996      -5.94400
    73    S    4  pz     Val( 3p)     1.62262      -0.26393
    74    S    4  pz     Ryd( 5p)     0.00413       0.36072
    75    S    4  pz     Ryd( 4p)     0.00003       0.21857
    76    S    4  dxy    Ryd( 3d)     0.00960       1.17020
    77    S    4  dxz    Ryd( 3d)     0.00286       0.81689
    78    S    4  dyz    Ryd( 3d)     0.00435       0.80589
    79    S    4  dx2y2  Ryd( 3d)     0.00219       0.97225
    80    S    4  dz2    Ryd( 3d)     0.00276       1.02800

    81    H    5  S      Val( 1S)     0.75205       0.07640
    82    H    5  S      Ryd( 2S)     0.00054       0.53464

    83    H    6  S      Val( 1S)     0.72800       0.07621
    84    H    6  S      Ryd( 2S)     0.00065       0.51653

    85    N    7  S      Cor( 1S)     1.99942     -14.15372
    86    N    7  S      Val( 2S)     1.39265      -0.54864
    87    N    7  S      Ryd( 3S)     0.00294       0.82521
    88    N    7  S      Ryd( 4S)     0.00023       1.64846
    89    N    7  S      Ryd( 5S)     0.00002       3.68219
    90    N    7  px     Val( 2p)     1.51225      -0.22382
    91    N    7  px     Ryd( 4p)     0.00631       0.73420
    92    N    7  px     Ryd( 3p)     0.00028       0.68600
    93    N    7  py     Val( 2p)     1.33401      -0.18449
    94    N    7  py     Ryd( 4p)     0.00612       0.81649
    95    N    7  py     Ryd( 3p)     0.00033       0.73724
    96    N    7  pz     Val( 2p)     1.18890      -0.18966
    97    N    7  pz     Ryd( 4p)     0.00071       0.61966
    98    N    7  pz     Ryd( 3p)     0.00011       0.58922
    99    N    7  dxy    Ryd( 3d)     0.00296       2.00827
   100    N    7  dxz    Ryd( 3d)     0.00253       1.74970
   101    N    7  dyz    Ryd( 3d)     0.00083       1.74637
   102    N    7  dx2y2  Ryd( 3d)     0.00354       2.27883
   103    N    7  dz2    Ryd( 3d)     0.00295       2.07033

   104    H    8  S      Val( 1S)     0.74761       0.07343
   105    H    8  S      Ryd( 2S)     0.00039       0.52516

 WARNING:  Population inversion found on atom  C    1
           Population inversion found on atom  C    2
           Population inversion found on atom  C    3
           Population inversion found on atom  S    4
           Population inversion found on atom  N    7


 Summary of Natural Population Analysis:                  
                                                          
                                       Natural Population 
                Natural  -----------------------------------------------
    Atom  No    Charge         Core      Valence    Rydberg      Total
 -----------------------------------------------------------------------
      C    1   -0.16325      1.99941     4.13314    0.03070     6.16325
      C    2   -0.07818      1.99906     4.05287    0.02625     6.07818
      C    3   -0.46680      1.99906     4.44980    0.01795     6.46680
      S    4    0.39458      9.99909     5.56628    0.04005    15.60542
      H    5    0.24741      0.00000     0.75205    0.00054     0.75259
      H    6    0.27135      0.00000     0.72800    0.00065     0.72865
      N    7   -0.45711      1.99942     5.42782    0.02987     7.45711
      H    8    0.25200      0.00000     0.74761    0.00039     0.74800
 =======================================================================
   * Total *    0.00000     17.99603    25.85756    0.14640    44.00000

                                 Natural Population      
 --------------------------------------------------------
   Core                      17.99603 ( 99.9780% of  18)
   Valence                   25.85756 ( 99.4522% of  26)
   Natural Minimal Basis     43.85360 ( 99.6673% of  44)
   Natural Rydberg Basis      0.14640 (  0.3327% of  44)
 --------------------------------------------------------

    Atom  No          Natural Electron Configuration
 ----------------------------------------------------------------------------
      C    1      [core]2S( 1.04)2p( 3.10)3d( 0.01)4p( 0.02)
      C    2      [core]2S( 0.95)2p( 3.10)4p( 0.02)
      C    3      [core]2S( 1.07)2p( 3.38)4p( 0.01)
      S    4      [core]3S( 1.67)3p( 3.90)3d( 0.02)5S( 0.01)5p( 0.01)
      H    5            1S( 0.75)
      H    6            1S( 0.73)
      N    7      [core]2S( 1.39)2p( 4.04)3d( 0.01)4p( 0.01)
      H    8            1S( 0.75)


 NATURAL BOND ORBITAL ANALYSIS:

                       Occupancies       Lewis Structure    Low   High
           Occ.    -------------------  -----------------   occ   occ
  Cycle   Thresh.   Lewis   Non-Lewis     CR  BD  3C  LP    (L)   (NL)   Dev
 =============================================================================
   1(1)    1.90    41.59290   2.40710      9  10   0   3     5      3    0.67
   2(2)    1.90    41.56943   2.43057      9  10   0   3     4      3    0.67
   3(3)    1.90    41.59290   2.40710      9  10   0   3     5      3    0.67
   4(1)    1.80    43.16777   0.83223      9  10   0   3     1      2    0.24
   5(2)    1.80    43.16777   0.83223      9  10   0   3     1      2    0.24
   6(1)    1.70    42.46168   1.53832      9  11   0   2     1      2    0.66
   7(2)    1.70    43.16777   0.83223      9  10   0   3     1      2    0.24
   8(3)    1.70    43.16777   0.83223      9  10   0   3     1      2    0.24
   9(1)    1.60    43.16778   0.83222      9  10   0   3     0      2    0.24
  10(2)    1.60    42.13234   1.86766      9   9   0   4     1      2    0.67
  11(3)    1.60    43.16778   0.83222      9  10   0   3     0      2    0.24
  12(1)    1.50    43.16778   0.83222      9  10   0   3     0      2    0.24
  13(2)    1.50    42.13234   1.86766      9   9   0   4     1      2    0.67
  14(3)    1.50    43.16778   0.83222      9  10   0   3     0      2    0.24
  15(1)    1.60    43.16778   0.83222      9  10   0   3     0      2    0.24
 -----------------------------------------------------------------------------

 Structure accepted: RESONANCE keyword permits strongly delocalized structure

 --------------------------------------------------------
   Core                     17.99604 ( 99.978% of  18)
   Valence Lewis            25.17175 ( 96.814% of  26)
  ==================       ============================
   Total Lewis              43.16778 ( 98.109% of  44)
  -----------------------------------------------------
   Valence non-Lewis         0.76538 (  1.739% of  44)
   Rydberg non-Lewis         0.06684 (  0.152% of  44)
  ==================       ============================
   Total non-Lewis           0.83222 (  1.891% of  44)
 --------------------------------------------------------


       (Occupancy)   Bond orbital/ Coefficients/ Hybrids
 ---------------------------------------------------------------------------------
     1. (1.98776) BD ( 1) C   1 - S   4  
                ( 50.83%)   0.7129* C   1 s( 28.27%)p 2.53( 71.59%)d 0.00(  0.13%)
                                            0.0000  0.5310  0.0244  0.0110 -0.0021
                                           -0.6216  0.0352  0.0085  0.5717  0.0319
                                           -0.0188 -0.0032 -0.0001  0.0001 -0.0314
                                            0.0002 -0.0002 -0.0007 -0.0187
                ( 49.17%)   0.7012* S   4 s( 16.31%)p 5.09( 83.08%)d 0.04(  0.61%)
                                            0.0000  0.0000  0.4017 -0.0420  0.0022
                                            0.0008  0.0000  0.5657 -0.0084 -0.0035
                                            0.0000 -0.7127  0.0526 -0.0035  0.0000
                                            0.0036 -0.0001  0.0000 -0.0701  0.0004
                                           -0.0004  0.0024 -0.0343
     2. (1.98972) BD ( 1) C   1 - N   7  
                ( 40.84%)   0.6391* C   1 s( 34.75%)p 1.88( 65.19%)d 0.00(  0.06%)
                                            0.0002  0.5883 -0.0372 -0.0041  0.0017
                                            0.7533 -0.0812  0.0052  0.2780  0.0176
                                           -0.0154 -0.0033  0.0001  0.0001  0.0127
                                           -0.0002 -0.0001  0.0150 -0.0142
                ( 59.16%)   0.7691* N   7 s( 36.43%)p 1.74( 63.31%)d 0.01(  0.27%)
                                           -0.0001  0.6030 -0.0262 -0.0044 -0.0009
                                           -0.7187  0.0100  0.0093 -0.3393  0.0348
                                           -0.0020  0.0024 -0.0001  0.0000  0.0146
                                           -0.0003 -0.0001  0.0383 -0.0314
     3. (1.89632) BD ( 2) C   1 - N   7  
                ( 44.63%)   0.6681* C   1 s(  0.00%)p 1.00( 99.92%)d 0.00(  0.08%)
                                            0.0000  0.0008  0.0000  0.0000  0.0000
                                            0.0014 -0.0002  0.0000  0.0063  0.0000
                                            0.0002  0.9991  0.0242  0.0195  0.0001
                                            0.0212  0.0185  0.0000 -0.0003
                ( 55.37%)   0.7441* N   7 s(  0.00%)p 1.00( 99.74%)d 0.00(  0.26%)
                                            0.0000  0.0008  0.0000  0.0001  0.0000
                                            0.0015 -0.0001  0.0000  0.0052 -0.0002
                                            0.0000  0.9985 -0.0137  0.0073 -0.0002
                                           -0.0482  0.0179 -0.0002  0.0000
     4. (1.98680) BD ( 1) C   1 - H   8  
                ( 62.93%)   0.7933* C   1 s( 36.90%)p 1.71( 63.04%)d 0.00(  0.06%)
                                            0.0003 -0.6074 -0.0049  0.0069  0.0000
                                            0.1906  0.0088 -0.0022  0.7707 -0.0013
                                           -0.0070 -0.0046  0.0001  0.0001 -0.0095
                                            0.0000  0.0003  0.0195  0.0104
                ( 37.07%)   0.6088* H   8 s(100.00%)
                                           -1.0000 -0.0024
     5. (1.99022) BD ( 1) C   2 - C   3  
                ( 49.10%)   0.7007* C   2 s( 37.39%)p 1.67( 62.56%)d 0.00(  0.05%)
                                            0.0000  0.6114 -0.0074 -0.0058  0.0019
                                           -0.6926  0.0086  0.0123  0.3798 -0.0374
                                            0.0020  0.0028 -0.0001  0.0000 -0.0134
                                           -0.0002  0.0001  0.0143 -0.0095
                ( 50.90%)   0.7135* C   3 s( 39.03%)p 1.56( 60.92%)d 0.00(  0.04%)
                                            0.0001  0.6247 -0.0091  0.0055  0.0029
                                            0.7075 -0.0439  0.0020 -0.3261 -0.0148
                                            0.0111 -0.0065  0.0000  0.0001 -0.0155
                                           -0.0002  0.0003  0.0046 -0.0136
     6. (1.88755) BD ( 2) C   2 - C   3  
                ( 46.21%)   0.6798* C   2 s(  0.00%)p 1.00( 99.94%)d 0.00(  0.06%)
                                            0.0000 -0.0010 -0.0005  0.0001 -0.0001
                                            0.0019  0.0003  0.0002 -0.0022  0.0000
                                           -0.0002  0.9989  0.0316  0.0217  0.0002
                                           -0.0244  0.0065  0.0001  0.0003
                ( 53.79%)   0.7334* C   3 s(  0.00%)p 1.00( 99.94%)d 0.00(  0.06%)
                                            0.0000  0.0001 -0.0002 -0.0001  0.0000
                                            0.0045 -0.0002  0.0001 -0.0097 -0.0003
                                           -0.0002  0.9989  0.0319  0.0198 -0.0001
                                            0.0135 -0.0206 -0.0001 -0.0004
     7. (1.97795) BD ( 1) C   2 - H   5  
                ( 62.57%)   0.7910* C   2 s( 33.17%)p 2.01( 66.78%)d 0.00(  0.05%)
                                           -0.0005  0.5757  0.0168  0.0046 -0.0024
                                            0.7193  0.0114 -0.0076  0.3871  0.0166
                                           -0.0062  0.0000  0.0001  0.0000  0.0166
                                            0.0000  0.0001  0.0121 -0.0111
                ( 37.43%)   0.6118* H   5 s(100.00%)
                                            1.0000  0.0023
     8. (1.98204) BD ( 1) C   2 - N   7  
                ( 40.81%)   0.6388* C   2 s( 29.42%)p 2.40( 70.51%)d 0.00(  0.07%)
                                            0.0000  0.5421 -0.0197 -0.0003  0.0007
                                            0.0168 -0.0515  0.0131 -0.8365  0.0470
                                            0.0086 -0.0013 -0.0001 -0.0001  0.0005
                                            0.0000 -0.0001 -0.0221 -0.0144
                ( 59.19%)   0.7694* N   7 s( 31.78%)p 2.14( 67.99%)d 0.01(  0.23%)
                                           -0.0002  0.5634 -0.0189  0.0060  0.0018
                                            0.0846 -0.0348  0.0035  0.8193 -0.0139
                                           -0.0111 -0.0048  0.0002  0.0000 -0.0181
                                            0.0001 -0.0003 -0.0336 -0.0293
     9. (1.98054) BD ( 1) C   3 - S   4  
                ( 51.68%)   0.7189* C   3 s( 24.75%)p 3.04( 75.12%)d 0.01(  0.13%)
                                           -0.0002  0.4972  0.0088 -0.0150 -0.0020
                                           -0.6822  0.0393  0.0052 -0.5322 -0.0259
                                            0.0174 -0.0022 -0.0002  0.0002  0.0296
                                            0.0001  0.0002  0.0001 -0.0211
                ( 48.32%)   0.6951* S   4 s( 17.48%)p 4.69( 81.89%)d 0.04(  0.63%)
                                            0.0000  0.0001  0.4148 -0.0521  0.0003
                                           -0.0004  0.0000  0.5826 -0.0102 -0.0046
                                            0.0000  0.6901 -0.0558  0.0031  0.0000
                                            0.0040 -0.0001 -0.0001  0.0705  0.0005
                                            0.0005  0.0062 -0.0357
    10. (1.98543) BD ( 1) C   3 - H   6  
                ( 63.69%)   0.7981* C   3 s( 36.11%)p 1.77( 63.85%)d 0.00(  0.04%)
                                           -0.0003  0.6009 -0.0012  0.0059 -0.0011
                                           -0.1712 -0.0019  0.0012  0.7804 -0.0037
                                           -0.0059  0.0083 -0.0003 -0.0002 -0.0088
                                           -0.0001  0.0006 -0.0149 -0.0120
                ( 36.31%)   0.6025* H   6 s(100.00%)
                                            1.0000  0.0028
    11. (1.99941) CR ( 1) C   1           s(100.00%)p 0.00(  0.00%)
                                            1.0000  0.0001  0.0000  0.0000  0.0000
                                           -0.0002  0.0000  0.0000 -0.0003  0.0000
                                            0.0000  0.0000  0.0000  0.0000  0.0000
                                            0.0000  0.0000  0.0000  0.0000
    12. (1.99906) CR ( 1) C   2           s(100.00%)p 0.00(  0.00%)
                                            1.0000  0.0003  0.0000  0.0000  0.0000
                                            0.0003  0.0000  0.0000  0.0002  0.0000
                                            0.0000  0.0000  0.0000  0.0000  0.0000
                                            0.0000  0.0000  0.0000  0.0000
    13. (1.99907) CR ( 1) C   3           s(100.00%)p 0.00(  0.00%)
                                            1.0000  0.0002  0.0000  0.0000  0.0000
                                           -0.0002  0.0000  0.0000  0.0002  0.0000
                                            0.0000  0.0000  0.0000  0.0000  0.0000
                                            0.0000  0.0000  0.0000  0.0000
    14. (2.00000) CR ( 1) S   4           s(100.00%)
                                            1.0000  0.0000  0.0000  0.0000  0.0000
                                            0.0000  0.0000  0.0000  0.0000  0.0000
                                            0.0000  0.0000  0.0000  0.0000  0.0000
                                            0.0000  0.0000  0.0000  0.0000  0.0000
                                            0.0000  0.0000  0.0000
    15. (1.99940) CR ( 2) S   4           s(100.00%)p 0.00(  0.00%)
                                            0.0000  1.0000  0.0002  0.0000  0.0000
                                            0.0000  0.0000 -0.0003  0.0000  0.0000
                                            0.0000 -0.0001  0.0000  0.0000  0.0000
                                            0.0000  0.0000  0.0000  0.0000  0.0000
                                            0.0000  0.0000  0.0000
    16. (1.99986) CR ( 3) S   4           s(  0.00%)p 1.00(100.00%)
                                            0.0000  0.0000  0.0001  0.0000  0.0000
                                            0.0000  1.0000 -0.0001  0.0000  0.0000
                                            0.0000  0.0000  0.0000  0.0000  0.0000
                                            0.0000  0.0000  0.0000  0.0000  0.0000
                                            0.0000  0.0000  0.0000
    17. (1.99987) CR ( 4) S   4           s(  0.00%)p 1.00(100.00%)
                                            0.0000  0.0000  0.0000  0.0000  0.0000
                                            0.0000  0.0000  0.0000  0.0000  0.0000
                                            1.0000  0.0000  0.0000  0.0000  0.0000
                                            0.0000  0.0000  0.0000  0.0000  0.0000
                                            0.0000  0.0000  0.0000
    18. (1.99995) CR ( 5) S   4           s(  0.00%)p 1.00(100.00%)
                                            0.0000  0.0000  0.0000  0.0000  0.0000
                                            0.0000  0.0000  0.0000  0.0000  0.0000
                                            0.0000  0.0000  0.0000  0.0000  1.0000
                                           -0.0010  0.0000  0.0000  0.0000  0.0000
                                            0.0000  0.0000  0.0000
    19. (1.99942) CR ( 1) N   7           s(100.00%)p 0.00(  0.00%)
                                            1.0000  0.0002  0.0000  0.0000  0.0000
                                           -0.0001  0.0000  0.0000  0.0002  0.0000
                                            0.0000  0.0000  0.0000  0.0000  0.0000
                                            0.0000  0.0000  0.0000  0.0000
    20. (1.98630) LP ( 1) S   4           s( 66.62%)p 0.50( 33.36%)d 0.00(  0.02%)
                                            0.0000 -0.0004  0.8159  0.0238 -0.0002
                                           -0.0002 -0.0001 -0.5775 -0.0090  0.0011
                                            0.0000 -0.0004  0.0009  0.0005  0.0000
                                           -0.0005  0.0001  0.0000 -0.0008 -0.0001
                                            0.0000 -0.0084  0.0112
    21. (1.62713) LP ( 2) S   4           s(  0.00%)p 1.00( 99.89%)d 0.00(  0.11%)
                                            0.0000  0.0000  0.0027 -0.0001 -0.0001
                                            0.0000  0.0000  0.0047  0.0003  0.0000
                                            0.0000  0.0002  0.0000  0.0000 -0.0010
                                           -0.9986 -0.0411 -0.0001  0.0000 -0.0324
                                            0.0034 -0.0002 -0.0003
    22. (1.89400) LP ( 1) N   7           s( 31.87%)p 2.13( 67.96%)d 0.01(  0.17%)
                                            0.0000  0.5638  0.0278 -0.0008 -0.0006
                                            0.6858  0.0266  0.0037 -0.4562 -0.0208
                                           -0.0035  0.0008  0.0000  0.0000  0.0336
                                            0.0000  0.0000 -0.0140  0.0205
    23. (0.00820) RY*( 1) C   1           s( 10.19%)p 8.17( 83.29%)d 0.64(  6.52%)
                                            0.0000  0.0309  0.3108 -0.0627 -0.0217
                                            0.0912  0.8996  0.1078 -0.0123  0.0006
                                           -0.0592  0.0002 -0.0025 -0.0004 -0.2128
                                            0.0019  0.0015  0.1411 -0.0031
    24. (0.00473) RY*( 2) C   1           s( 15.46%)p 4.13( 63.91%)d 1.33( 20.63%)
                                            0.0000 -0.0308  0.3821 -0.0623  0.0614
                                           -0.0012 -0.3004  0.2451 -0.0307  0.6670
                                           -0.2071  0.0000  0.0065  0.0027 -0.2910
                                           -0.0020  0.0017  0.3451  0.0495
    25. (0.00269) RY*( 3) C   1           s(  0.00%)p 1.00( 67.82%)d 0.47( 32.18%)
                                            0.0000 -0.0004  0.0010 -0.0002  0.0011
                                           -0.0001 -0.0047  0.0037 -0.0001  0.0045
                                           -0.0042  0.0093 -0.8141 -0.1238 -0.0004
                                            0.5652  0.0489  0.0000 -0.0010
    26. (0.00077) RY*( 4) C   1           s( 50.67%)p 0.54( 27.37%)d 0.43( 21.96%)
                                            0.0000  0.0139  0.7070 -0.0513  0.0637
                                            0.0089 -0.0937 -0.3627  0.0192 -0.0802
                                            0.3397 -0.0043  0.0601  0.0869  0.4343
                                            0.1168 -0.0864  0.0965  0.0241
    27. (0.00073) RY*( 5) C   1           s(  1.69%)p21.22( 35.79%)d37.08( 62.53%)
                                            0.0000  0.0025  0.1289 -0.0068  0.0138
                                            0.0017 -0.0160 -0.0726  0.0037 -0.0072
                                            0.0590  0.0222 -0.3338 -0.4867  0.0797
                                           -0.6281  0.4735  0.0122  0.0016
    28. (0.00048) RY*( 6) C   1           s( 22.01%)p 2.45( 53.91%)d 1.09( 24.08%)
                                            0.0000 -0.0049 -0.0714  0.4230  0.1897
                                            0.0229  0.1990 -0.4258 -0.0060  0.5498
                                           -0.1241 -0.0001  0.0031  0.0045  0.1154
                                            0.0055 -0.0086 -0.4609  0.1223
    29. (0.00008) RY*( 7) C   1           s( 69.36%)p 0.08(  5.40%)d 0.36( 25.25%)
    30. (0.00006) RY*( 8) C   1           s( 14.99%)p 4.99( 74.84%)d 0.68( 10.17%)
    31. (0.00003) RY*( 9) C   1           s(  9.69%)p 5.06( 49.00%)d 4.26( 41.31%)
    32. (0.00000) RY*(10) C   1           s( 21.07%)p 1.21( 25.51%)d 2.54( 53.43%)
    33. (0.00001) RY*(11) C   1           s( 82.18%)p 0.16( 13.17%)d 0.06(  4.65%)
    34. (0.00001) RY*(12) C   1           s(  2.78%)p 1.43(  3.98%)d33.55( 93.24%)
    35. (0.00000) RY*(13) C   1           s(  0.00%)p 1.00( 82.92%)d 0.21( 17.08%)
    36. (0.00000) RY*(14) C   1           s(  0.00%)p 1.00( 13.34%)d 6.50( 86.66%)
    37. (0.00739) RY*( 1) C   2           s(  9.94%)p 8.28( 82.27%)d 0.78(  7.79%)
                                            0.0000  0.0162  0.2868 -0.1287  0.0173
                                            0.0360  0.1823  0.0499 -0.0547 -0.8827
                                           -0.0598  0.0000 -0.0022  0.0009 -0.2653
                                            0.0013  0.0002 -0.0815  0.0300
    38. (0.00554) RY*( 2) C   2           s( 10.18%)p 8.23( 83.73%)d 0.60(  6.09%)
                                            0.0000 -0.0129  0.3067  0.0743  0.0445
                                            0.0035 -0.8993  0.1598  0.0426 -0.0142
                                            0.0318  0.0006 -0.0017 -0.0002 -0.2358
                                            0.0011 -0.0003 -0.0587  0.0434
    39. (0.00119) RY*( 3) C   2           s(  0.05%)p99.99( 38.45%)d99.99( 61.49%)
                                            0.0000  0.0000  0.0222  0.0052 -0.0036
                                           -0.0006  0.0124  0.0292 -0.0012  0.0148
                                           -0.0413 -0.0297  0.5929  0.1708 -0.0148
                                           -0.0882  0.7787  0.0223  0.0047
    40. (0.00093) RY*( 4) C   2           s( 12.73%)p 5.13( 65.33%)d 1.72( 21.94%)
                                            0.0000  0.0000  0.3475  0.0156 -0.0795
                                           -0.0073  0.2398  0.4533 -0.0153  0.2929
                                           -0.5515  0.0013 -0.0047 -0.0102 -0.3224
                                            0.0230 -0.0733  0.3179  0.0917
    41. (0.00063) RY*( 5) C   2           s(  0.03%)p99.99( 52.84%)d99.99( 47.14%)
                                            0.0000 -0.0001  0.0153  0.0007 -0.0041
                                           -0.0002  0.0120  0.0212 -0.0005  0.0152
                                           -0.0238  0.0097 -0.7230 -0.0642 -0.0146
                                           -0.4601  0.5093  0.0083  0.0082
    42. (0.00033) RY*( 6) C   2           s( 63.19%)p 0.43( 27.06%)d 0.15(  9.75%)
                                            0.0000  0.0101  0.7924 -0.0525 -0.0328
                                           -0.0326  0.1281 -0.4572 -0.0126  0.2014
                                            0.0581  0.0004  0.0014 -0.0001  0.2561
                                            0.0007  0.0001 -0.1636  0.0718
    43. (0.00014) RY*( 7) C   2           s( 45.88%)p 0.14(  6.40%)d 1.04( 47.72%)
                                            0.0000  0.0052  0.0801  0.6490  0.1764
                                           -0.0018 -0.0093 -0.0928 -0.0290 -0.1957
                                            0.1271 -0.0002 -0.0034 -0.0010  0.2168
                                           -0.0074 -0.0048  0.6273  0.1914
    44. (0.00010) RY*( 8) C   2           s( 27.82%)p 0.42( 11.81%)d 2.17( 60.37%)
                                            0.0000  0.0130 -0.1013  0.3123  0.4126
                                            0.0031  0.1564 -0.2571  0.0087  0.1622
                                            0.0318 -0.0002  0.0029  0.0095 -0.5720
                                            0.0037  0.0010 -0.3417  0.3997
    45. (0.00003) RY*( 9) C   2           s( 60.89%)p 0.16(  9.91%)d 0.48( 29.19%)
    46. (0.00001) RY*(10) C   2           s( 38.98%)p 0.56( 21.84%)d 1.01( 39.18%)
    47. (0.00000) RY*(11) C   2           s(  0.00%)p 1.00( 10.71%)d 8.34( 89.29%)
    48. (0.00001) RY*(12) C   2           s(  9.37%)p 9.65( 90.37%)d 0.03(  0.26%)
    49. (0.00000) RY*(13) C   2           s(  0.00%)p 1.00( 98.47%)d 0.02(  1.53%)
    50. (0.00000) RY*(14) C   2           s( 20.97%)p 0.05(  1.01%)d 3.72( 78.02%)
    51. (0.00324) RY*( 1) C   3           s( 17.52%)p 3.99( 69.94%)d 0.72( 12.54%)
                                            0.0000 -0.0169  0.3986  0.1263 -0.0058
                                           -0.0243 -0.5758  0.1754  0.0112 -0.5785
                                            0.0410 -0.0003  0.0082  0.0036  0.0920
                                            0.0002 -0.0012  0.3407  0.0290
    52. (0.00222) RY*( 2) C   3           s( 16.08%)p 4.89( 78.60%)d 0.33(  5.32%)
                                            0.0000 -0.0007  0.4007  0.0130 -0.0029
                                            0.0574  0.7919 -0.0079  0.0182 -0.3931
                                           -0.0268  0.0000 -0.0013  0.0021  0.1586
                                            0.0028  0.0002  0.1665 -0.0190
    53. (0.00089) RY*( 3) C   3           s(  0.03%)p99.99( 21.34%)d99.99( 78.63%)
                                            0.0000  0.0004  0.0144  0.0069  0.0012
                                           -0.0002 -0.0002 -0.0078 -0.0005  0.0065
                                           -0.0024  0.0154 -0.0526 -0.4586 -0.0006
                                           -0.8270 -0.3201  0.0011  0.0007
    54. (0.00076) RY*( 4) C   3           s(  0.11%)p99.99( 84.65%)d99.99( 15.24%)
                                            0.0000  0.0004  0.0291  0.0148  0.0029
                                           -0.0005 -0.0078 -0.0067 -0.0010  0.0134
                                           -0.0044  0.0245 -0.8737 -0.2869 -0.0123
                                            0.3085 -0.2389  0.0005 -0.0009
    55. (0.00061) RY*( 5) C   3           s( 49.79%)p 0.84( 41.86%)d 0.17(  8.36%)
                                            0.0000  0.0203  0.6908  0.0900  0.1100
                                           -0.0116 -0.0716 -0.1290 -0.0184  0.5122
                                           -0.3642 -0.0010  0.0331  0.0144 -0.2688
                                            0.0043  0.0137  0.0865  0.0603
    56. (0.00033) RY*( 6) C   3           s(  0.44%)p99.99( 79.00%)d46.74( 20.56%)
                                            0.0000 -0.0080  0.0653  0.0081  0.0019
                                           -0.0131 -0.0390 -0.7660 -0.0006 -0.2371
                                            0.3810 -0.0001  0.0051  0.0072 -0.4462
                                           -0.0007  0.0055 -0.0793 -0.0137
    57. (0.00012) RY*( 7) C   3           s( 94.57%)p 0.03(  2.46%)d 0.03(  2.98%)
                                            0.0000  0.0044 -0.1415  0.8979 -0.3455
                                           -0.0095  0.0785 -0.0408 -0.0084  0.1179
                                            0.0509 -0.0001  0.0055  0.0086  0.0079
                                           -0.0015  0.0061  0.1722 -0.0008
    58. (0.00005) RY*( 8) C   3           s(  5.83%)p 4.54( 26.43%)d11.63( 67.75%)
    59. (0.00002) RY*( 9) C   3           s( 39.66%)p 1.00( 39.70%)d 0.52( 20.64%)
    60. (0.00002) RY*(10) C   3           s(  2.46%)p17.43( 42.88%)d22.22( 54.66%)
    61. (0.00001) RY*(11) C   3           s(  1.11%)p 3.77(  4.18%)d85.41( 94.71%)
    62. (0.00000) RY*(12) C   3           s(  0.00%)p 1.00( 11.58%)d 7.63( 88.41%)
    63. (0.00000) RY*(13) C   3           s( 72.51%)p 0.21( 15.26%)d 0.17( 12.24%)
    64. (0.00000) RY*(14) C   3           s(  0.03%)p99.99( 82.30%)d99.99( 17.67%)
    65. (0.00485) RY*( 1) S   4           s(  0.00%)p 1.00( 11.66%)d 7.58( 88.34%)
                                            0.0000  0.0000  0.0001  0.0016  0.0019
                                            0.0001  0.0000  0.0003 -0.0002  0.0002
                                            0.0000  0.0008  0.0037  0.0031  0.0000
                                           -0.0085  0.3337  0.0714  0.0003 -0.2561
                                           -0.9044 -0.0034 -0.0030
    66. (0.00338) RY*( 2) S   4           s(  1.74%)p27.99( 48.71%)d28.47( 49.55%)
                                            0.0000  0.0000  0.0097  0.1084 -0.0577
                                            0.0472  0.0000  0.0189  0.6065  0.0901
                                            0.0000 -0.0439 -0.3299 -0.0068  0.0000
                                            0.0006 -0.0056  0.0013  0.2159  0.0009
                                           -0.0012 -0.6678  0.0531
    67. (0.00204) RY*( 3) S   4           s(  0.05%)p99.99( 41.27%)d99.99( 58.67%)
                                            0.0000  0.0000  0.0008  0.0190 -0.0130
                                            0.0039  0.0000  0.0017 -0.0048  0.0177
                                            0.0000 -0.0106 -0.0511 -0.0024  0.0000
                                           -0.0042  0.6388  0.0392  0.0642 -0.6366
                                            0.4187  0.0434  0.0127
    68. (0.00191) RY*( 4) S   4           s(  4.39%)p 6.79( 29.84%)d14.97( 65.77%)
                                            0.0000  0.0000 -0.0056 -0.0995  0.1820
                                           -0.0296  0.0000 -0.0090  0.0785 -0.1836
                                            0.0000  0.1025  0.4944  0.0070  0.0000
                                            0.0000  0.0587  0.0048 -0.6357 -0.0646
                                            0.0448 -0.4600 -0.1893
    69. (0.00063) RY*( 5) S   4           s( 37.67%)p 0.46( 17.44%)d 1.19( 44.88%)
                                            0.0000  0.0000 -0.0160 -0.1214  0.6015
                                           -0.0008  0.0000 -0.0236 -0.3972  0.0296
                                            0.0000 -0.0442  0.0647 -0.0954  0.0000
                                            0.0000 -0.0051 -0.0001  0.4999  0.0016
                                            0.0011 -0.3204 -0.3102
    70. (0.00037) RY*( 6) S   4           s( 68.94%)p 0.32( 22.09%)d 0.13(  8.96%)
                                            0.0000  0.0000  0.0223  0.6827  0.4651
                                            0.0813  0.0000  0.0563  0.2802  0.1727
                                            0.0000  0.0266  0.3111 -0.1092  0.0000
                                            0.0002 -0.0044 -0.0022  0.0286  0.0057
                                           -0.0017  0.2265  0.1936
    71. (0.00027) RY*( 7) S   4           s( 20.00%)p 2.87( 57.40%)d 1.13( 22.61%)
                                            0.0000  0.0000 -0.0019  0.1913  0.4012
                                            0.0496  0.0000  0.0045 -0.1536 -0.0518
                                            0.0000 -0.0075 -0.6998  0.2407  0.0000
                                            0.0000 -0.0032  0.0015 -0.4612  0.0022
                                           -0.0024  0.0396 -0.1086
    72. (0.00008) RY*( 8) S   4           s(  0.46%)p99.99( 96.73%)d 6.05(  2.80%)
    73. (0.00003) RY*( 9) S   4           s( 27.37%)p 1.99( 54.50%)d 0.66( 18.13%)
    74. (0.00000) RY*(10) S   4           s( 99.46%)p 0.01(  0.51%)d 0.00(  0.03%)
    75. (0.00000) RY*(11) S   4           s(  0.00%)p 1.00( 47.56%)d 1.10( 52.44%)
    76. (0.00000) RY*(12) S   4           s( 36.45%)p 1.26( 46.10%)d 0.48( 17.45%)
    77. (0.00000) RY*(13) S   4           s(  0.00%)p 1.00( 99.57%)d 0.00(  0.43%)
    78. (0.00000) RY*(14) S   4           s(  3.04%)p 9.33( 28.38%)d22.55( 68.58%)
    79. (0.00055) RY*( 1) H   5           s(100.00%)
                                           -0.0023  1.0000
    80. (0.00065) RY*( 1) H   6           s(100.00%)
                                           -0.0028  1.0000
    81. (0.00517) RY*( 1) N   7           s(  0.96%)p99.99( 98.23%)d 0.83(  0.80%)
                                            0.0000 -0.0017  0.0770  0.0585  0.0168
                                            0.0324 -0.6960 -0.0306 -0.0187  0.7035
                                           -0.0282  0.0001 -0.0037 -0.0003  0.0729
                                            0.0004 -0.0002  0.0081 -0.0515
    82. (0.00220) RY*( 2) N   7           s(  3.44%)p27.71( 95.22%)d 0.39(  1.34%)
                                            0.0000  0.0002  0.1548  0.1003 -0.0185
                                            0.0187  0.6873 -0.1294  0.0391  0.6474
                                           -0.2047 -0.0003 -0.0140  0.0001 -0.0835
                                           -0.0008 -0.0001  0.0760 -0.0253
    83. (0.00071) RY*( 3) N   7           s(  0.00%)p 1.00( 95.49%)d 0.05(  4.51%)
                                            0.0000  0.0000  0.0027 -0.0004  0.0018
                                           -0.0007 -0.0080  0.0029 -0.0005 -0.0130
                                           -0.0043 -0.0219 -0.9531 -0.2141 -0.0003
                                           -0.1676  0.1302 -0.0044  0.0008
    84. (0.00038) RY*( 4) N   7           s( 61.75%)p 0.13(  8.31%)d 0.48( 29.94%)
                                            0.0000  0.0082  0.7368 -0.1988  0.1873
                                           -0.0502  0.0152 -0.2451  0.0299 -0.0851
                                            0.1072 -0.0009 -0.0095  0.0235  0.4479
                                           -0.0580 -0.1289 -0.1736  0.2207
    85. (0.00034) RY*( 5) N   7           s(  1.23%)p 2.93(  3.59%)d77.67( 95.19%)
                                            0.0000  0.0009  0.0876 -0.0625  0.0260
                                           -0.0064  0.0060 -0.0438  0.0053 -0.0060
                                            0.0088  0.0054  0.0884 -0.1609  0.0830
                                            0.3937  0.8881 -0.0211  0.0295
    86. (0.00022) RY*( 6) N   7           s( 34.65%)p 0.25(  8.74%)d 1.63( 56.61%)
                                            0.0000  0.0100  0.4154  0.4169  0.0044
                                           -0.0341 -0.0853  0.2027 -0.0367 -0.0950
                                           -0.1656  0.0004  0.0092 -0.0050 -0.5642
                                            0.0173  0.0301 -0.4953  0.0350
    87. (0.00019) RY*( 7) N   7           s( 35.15%)p 1.81( 63.53%)d 0.04(  1.32%)
                                            0.0000  0.0095 -0.0462  0.5905 -0.0235
                                            0.0029  0.0041 -0.5774 -0.0026 -0.0449
                                            0.5475 -0.0002 -0.0008 -0.0073 -0.0362
                                            0.0025  0.0179  0.0846 -0.0663
    88. (0.00006) RY*( 8) N   7           s( 27.71%)p 0.65( 18.08%)d 1.96( 54.20%)
    89. (0.00001) RY*( 9) N   7           s( 38.45%)p 0.38( 14.55%)d 1.22( 47.00%)
    90. (0.00002) RY*(10) N   7           s(  8.59%)p 0.09(  0.73%)d10.56( 90.68%)
    91. (0.00000) RY*(11) N   7           s(  0.00%)p 1.00(  4.50%)d21.21( 95.50%)
    92. (0.00000) RY*(12) N   7           s( 87.26%)p 0.00(  0.08%)d 0.15( 12.66%)
    93. (0.00000) RY*(13) N   7           s(  0.00%)p 1.00( 96.82%)d 0.03(  3.18%)
    94. (0.00000) RY*(14) N   7           s(  0.73%)p99.99( 93.12%)d 8.36(  6.14%)
    95. (0.00039) RY*( 1) H   8           s(100.00%)
                                           -0.0024  1.0000
    96. (0.07152) BD*( 1) C   1 - S   4  
                ( 49.17%)   0.7012* C   1 s( 28.27%)p 2.53( 71.59%)d 0.00(  0.13%)
                                            0.0000 -0.5310 -0.0244 -0.0110  0.0021
                                            0.6216 -0.0352 -0.0085 -0.5717 -0.0319
                                            0.0188  0.0032  0.0001 -0.0001  0.0314
                                           -0.0002  0.0002  0.0007  0.0187
                ( 50.83%)  -0.7129* S   4 s( 16.31%)p 5.09( 83.08%)d 0.04(  0.61%)
                                            0.0000  0.0000 -0.4017  0.0420 -0.0022
                                           -0.0008  0.0000 -0.5657  0.0084  0.0035
                                            0.0000  0.7127 -0.0526  0.0035  0.0000
                                           -0.0036  0.0001  0.0000  0.0701 -0.0004
                                            0.0004 -0.0024  0.0343
    97. (0.01418) BD*( 1) C   1 - N   7  
                ( 59.16%)   0.7691* C   1 s( 34.75%)p 1.88( 65.19%)d 0.00(  0.06%)
                                            0.0002  0.5883 -0.0372 -0.0041  0.0017
                                            0.7533 -0.0812  0.0052  0.2780  0.0176
                                           -0.0154 -0.0033  0.0001  0.0001  0.0127
                                           -0.0002 -0.0001  0.0150 -0.0142
                ( 40.84%)  -0.6391* N   7 s( 36.43%)p 1.74( 63.31%)d 0.01(  0.27%)
                                           -0.0001  0.6030 -0.0262 -0.0044 -0.0009
                                           -0.7187  0.0100  0.0093 -0.3393  0.0348
                                           -0.0020  0.0024 -0.0001  0.0000  0.0146
                                           -0.0003 -0.0001  0.0383 -0.0314
    98. (0.31834) BD*( 2) C   1 - N   7  
                ( 55.37%)   0.7441* C   1 s(  0.00%)p 1.00( 99.92%)d 0.00(  0.08%)
                                            0.0000  0.0008  0.0000  0.0000  0.0000
                                            0.0014 -0.0002  0.0000  0.0063  0.0000
                                            0.0002  0.9991  0.0242  0.0195  0.0001
                                            0.0212  0.0185  0.0000 -0.0003
                ( 44.63%)  -0.6681* N   7 s(  0.00%)p 1.00( 99.74%)d 0.00(  0.26%)
                                            0.0000  0.0008  0.0000  0.0001  0.0000
                                            0.0015 -0.0001  0.0000  0.0052 -0.0002
                                            0.0000  0.9985 -0.0137  0.0073 -0.0002
                                           -0.0482  0.0179 -0.0002  0.0000
    99. (0.01765) BD*( 1) C   1 - H   8  
                ( 37.07%)   0.6088* C   1 s( 36.90%)p 1.71( 63.04%)d 0.00(  0.06%)
                                           -0.0003  0.6074  0.0049 -0.0069  0.0000
                                           -0.1906 -0.0088  0.0022 -0.7707  0.0013
                                            0.0070  0.0046 -0.0001 -0.0001  0.0095
                                            0.0000 -0.0003 -0.0195 -0.0104
                ( 62.93%)  -0.7933* H   8 s(100.00%)
                                            1.0000  0.0024
   100. (0.02576) BD*( 1) C   2 - C   3  
                ( 50.90%)   0.7135* C   2 s( 37.39%)p 1.67( 62.56%)d 0.00(  0.05%)
                                            0.0000  0.6114 -0.0074 -0.0058  0.0019
                                           -0.6926  0.0086  0.0123  0.3798 -0.0374
                                            0.0020  0.0028 -0.0001  0.0000 -0.0134
                                           -0.0002  0.0001  0.0143 -0.0095
                ( 49.10%)  -0.7007* C   3 s( 39.03%)p 1.56( 60.92%)d 0.00(  0.04%)
                                            0.0001  0.6247 -0.0091  0.0055  0.0029
                                            0.7075 -0.0439  0.0020 -0.3261 -0.0148
                                            0.0111 -0.0065  0.0000  0.0001 -0.0155
                                           -0.0002  0.0003  0.0046 -0.0136
   101. (0.25587) BD*( 2) C   2 - C   3  
                ( 53.79%)   0.7334* C   2 s(  0.00%)p 1.00( 99.94%)d 0.00(  0.06%)
                                            0.0000 -0.0010 -0.0005  0.0001 -0.0001
                                            0.0019  0.0003  0.0002 -0.0022  0.0000
                                           -0.0002  0.9989  0.0316  0.0217  0.0002
                                           -0.0244  0.0065  0.0001  0.0003
                ( 46.21%)  -0.6798* C   3 s(  0.00%)p 1.00( 99.94%)d 0.00(  0.06%)
                                            0.0000  0.0001 -0.0002 -0.0001  0.0000
                                            0.0045 -0.0002  0.0001 -0.0097 -0.0003
                                           -0.0002  0.9989  0.0319  0.0198 -0.0001
                                            0.0135 -0.0206 -0.0001 -0.0004
   102. (0.01880) BD*( 1) C   2 - H   5  
                ( 37.43%)   0.6118* C   2 s( 33.17%)p 2.01( 66.78%)d 0.00(  0.05%)
                                            0.0005 -0.5757 -0.0168 -0.0046  0.0024
                                           -0.7193 -0.0114  0.0076 -0.3871 -0.0166
                                            0.0062  0.0000 -0.0001  0.0000 -0.0166
                                            0.0000 -0.0001 -0.0121  0.0111
                ( 62.57%)  -0.7910* H   5 s(100.00%)
                                           -1.0000 -0.0023
   103. (0.01546) BD*( 1) C   2 - N   7  
                ( 59.19%)   0.7694* C   2 s( 29.42%)p 2.40( 70.51%)d 0.00(  0.07%)
                                            0.0000  0.5421 -0.0197 -0.0003  0.0007
                                            0.0168 -0.0515  0.0131 -0.8365  0.0470
                                            0.0086 -0.0013 -0.0001 -0.0001  0.0005
                                            0.0000 -0.0001 -0.0221 -0.0144
                ( 40.81%)  -0.6388* N   7 s( 31.78%)p 2.14( 67.99%)d 0.01(  0.23%)
                                           -0.0002  0.5634 -0.0189  0.0060  0.0018
                                            0.0846 -0.0348  0.0035  0.8193 -0.0139
                                           -0.0111 -0.0048  0.0002  0.0000 -0.0181
                                            0.0001 -0.0003 -0.0336 -0.0293
   104. (0.01654) BD*( 1) C   3 - S   4  
                ( 48.32%)   0.6951* C   3 s( 24.75%)p 3.04( 75.12%)d 0.01(  0.13%)
                                            0.0002 -0.4972 -0.0088  0.0150  0.0020
                                            0.6822 -0.0393 -0.0052  0.5322  0.0259
                                           -0.0174  0.0022  0.0002 -0.0002 -0.0296
                                           -0.0001 -0.0002 -0.0001  0.0211
                ( 51.68%)  -0.7189* S   4 s( 17.48%)p 4.69( 81.89%)d 0.04(  0.63%)
                                            0.0000 -0.0001 -0.4148  0.0521 -0.0003
                                            0.0004  0.0000 -0.5826  0.0102  0.0046
                                            0.0000 -0.6901  0.0558 -0.0031  0.0000
                                           -0.0040  0.0001  0.0001 -0.0705 -0.0005
                                           -0.0005 -0.0062  0.0357
   105. (0.01126) BD*( 1) C   3 - H   6  
                ( 36.31%)   0.6025* C   3 s( 36.11%)p 1.77( 63.85%)d 0.00(  0.04%)
                                            0.0003 -0.6009  0.0012 -0.0059  0.0011
                                            0.1712  0.0019 -0.0012 -0.7804  0.0037
                                            0.0059 -0.0083  0.0003  0.0002  0.0088
                                            0.0001 -0.0006  0.0149  0.0120
                ( 63.69%)  -0.7981* H   6 s(100.00%)
                                           -1.0000 -0.0028


 NHO Directionality and "Bond Bending" (deviations from line of nuclear centers)

         [Thresholds for printing:  angular deviation  >  1.0 degree]
                                    hybrid p-character > 25.0%
                                    orbital occupancy  >  0.10e

                                Line of Centers        Hybrid 1              Hybrid 2
                                ---------------  -------------------   ------------------
                NBO               Theta   Phi    Theta   Phi    Dev    Theta   Phi    Dev
 ========================================================================================
     1. BD (   1) C   1 - S   4    90.2  135.0     --     --    --      89.8  309.9   5.2
     2. BD (   1) C   1 - N   7    90.2   20.1    90.2   22.5   2.3     89.8  203.7   3.5
     3. BD (   2) C   1 - N   7    90.2   20.1     0.4   80.0  90.0      0.3   73.3  90.0
     4. BD (   1) C   1 - H   8    89.6  257.6    89.7  255.5   2.1      --     --    --
     6. BD (   2) C   2 - C   3    89.6  152.9   179.8  135.7  90.2    179.4  113.4  90.1
     8. BD (   1) C   2 - N   7    89.8  269.5    90.1  268.4   1.2     90.3   86.2   3.4
     9. BD (   1) C   3 - S   4    90.2  223.3    90.1  220.3   3.0     89.7   48.3   5.0
    20. LP (   1) S   4             --     --     90.0  179.9   --       --     --    --
    21. LP (   2) S   4             --     --    179.7    2.8   --       --     --    --
    22. LP (   1) N   7             --     --     89.9  326.1   --       --     --    --
    98. BD*(   2) C   1 - N   7    90.2   20.1     0.4   80.0  90.0      0.3   73.3  90.0
   101. BD*(   2) C   2 - C   3    89.6  152.9   179.8  135.7  90.2    179.4  113.4  90.1


 Second Order Perturbation Theory Analysis of Fock Matrix in NBO Basis

     Threshold for printing:   0.50 kcal/mol
                                                                              E(2)  E(j)-E(i) F(i,j)
         Donor NBO (i)                     Acceptor NBO (j)                 kcal/mol   a.u.    a.u. 
 ===================================================================================================

 within unit  1
   1. BD (   1) C   1 - S   4        / 52. RY*(   2) C   3                    0.68    1.35    0.027
   1. BD (   1) C   1 - S   4        / 81. RY*(   1) N   7                    1.47    1.36    0.040
   1. BD (   1) C   1 - S   4        / 82. RY*(   2) N   7                    1.10    1.66    0.038
   1. BD (   1) C   1 - S   4        /100. BD*(   1) C   2 - C   3            0.62    1.24    0.025
   1. BD (   1) C   1 - S   4        /102. BD*(   1) C   2 - H   5            0.64    1.11    0.024
   1. BD (   1) C   1 - S   4        /105. BD*(   1) C   3 - H   6            3.04    1.11    0.052
   2. BD (   1) C   1 - N   7        / 38. RY*(   2) C   2                    3.08    1.88    0.068
   2. BD (   1) C   1 - N   7        / 99. BD*(   1) C   1 - H   8            1.06    1.34    0.034
   2. BD (   1) C   1 - N   7        /102. BD*(   1) C   2 - H   5            2.63    1.33    0.053
   2. BD (   1) C   1 - N   7        /103. BD*(   1) C   2 - N   7            1.05    1.34    0.033
   3. BD (   2) C   1 - N   7        / 39. RY*(   3) C   2                    1.75    1.75    0.051
   3. BD (   2) C   1 - N   7        / 67. RY*(   3) S   4                    1.70    0.91    0.036
   3. BD (   2) C   1 - N   7        /101. BD*(   2) C   2 - C   3           18.25    0.33    0.073
   4. BD (   1) C   1 - H   8        / 81. RY*(   1) N   7                    1.07    1.28    0.033
   4. BD (   1) C   1 - H   8        / 97. BD*(   1) C   1 - N   7            1.01    1.14    0.030
   4. BD (   1) C   1 - H   8        /103. BD*(   1) C   2 - N   7            4.17    1.05    0.059
   5. BD (   1) C   2 - C   3        / 66. RY*(   2) S   4                    0.53    1.37    0.024
   5. BD (   1) C   2 - C   3        / 82. RY*(   2) N   7                    1.15    1.76    0.040
   5. BD (   1) C   2 - C   3        /102. BD*(   1) C   2 - H   5            1.57    1.21    0.039
   5. BD (   1) C   2 - C   3        /103. BD*(   1) C   2 - N   7            0.58    1.22    0.024
   5. BD (   1) C   2 - C   3        /105. BD*(   1) C   3 - H   6            1.85    1.21    0.042
   6. BD (   2) C   2 - C   3        / 65. RY*(   1) S   4                    2.02    1.03    0.042
   6. BD (   2) C   2 - C   3        / 67. RY*(   3) S   4                    0.54    0.87    0.020
   6. BD (   2) C   2 - C   3        / 83. RY*(   3) N   7                    0.80    0.78    0.023
   6. BD (   2) C   2 - C   3        / 98. BD*(   2) C   1 - N   7           12.66    0.28    0.056
   7. BD (   1) C   2 - H   5        / 52. RY*(   2) C   3                    0.63    1.24    0.025
   7. BD (   1) C   2 - H   5        / 81. RY*(   1) N   7                    0.62    1.25    0.025
   7. BD (   1) C   2 - H   5        / 97. BD*(   1) C   1 - N   7            2.59    1.10    0.048
   7. BD (   1) C   2 - H   5        /100. BD*(   1) C   2 - C   3            1.48    1.13    0.037
   7. BD (   1) C   2 - H   5        /104. BD*(   1) C   3 - S   4            3.84    0.74    0.048
   8. BD (   1) C   2 - N   7        / 23. RY*(   1) C   1                    0.85    1.38    0.031
   8. BD (   1) C   2 - N   7        / 24. RY*(   2) C   1                    2.29    2.02    0.061
   8. BD (   1) C   2 - N   7        / 51. RY*(   1) C   3                    0.57    1.83    0.029
   8. BD (   1) C   2 - N   7        / 97. BD*(   1) C   1 - N   7            0.75    1.34    0.028
   8. BD (   1) C   2 - N   7        / 99. BD*(   1) C   1 - H   8            4.04    1.25    0.063
   8. BD (   1) C   2 - N   7        /100. BD*(   1) C   2 - C   3            1.10    1.37    0.035
   8. BD (   1) C   2 - N   7        /105. BD*(   1) C   3 - H   6            2.48    1.24    0.050
   9. BD (   1) C   3 - S   4        / 37. RY*(   1) C   2                    1.46    1.41    0.040
   9. BD (   1) C   3 - S   4        / 40. RY*(   4) C   2                    0.51    1.68    0.026
   9. BD (   1) C   3 - S   4        / 97. BD*(   1) C   1 - N   7            1.15    1.22    0.033
   9. BD (   1) C   3 - S   4        / 99. BD*(   1) C   1 - H   8            2.68    1.12    0.049
   9. BD (   1) C   3 - S   4        /102. BD*(   1) C   2 - H   5            4.50    1.11    0.063
   9. BD (   1) C   3 - S   4        /103. BD*(   1) C   2 - N   7            1.18    1.12    0.032
  10. BD (   1) C   3 - H   6        / 38. RY*(   2) C   2                    1.38    1.58    0.042
  10. BD (   1) C   3 - H   6        /100. BD*(   1) C   2 - C   3            2.10    1.16    0.044
  10. BD (   1) C   3 - H   6        /103. BD*(   1) C   2 - N   7            3.35    1.04    0.053
  11. CR (   1) C   1                / 82. RY*(   2) N   7                    1.16   11.15    0.102
  11. CR (   1) C   1                / 96. BD*(   1) C   1 - S   4            0.90   10.32    0.088
  11. CR (   1) C   1                /103. BD*(   1) C   2 - N   7            1.23   10.61    0.102
  12. CR (   1) C   2                / 52. RY*(   2) C   3                    2.48   10.78    0.146
  12. CR (   1) C   2                / 82. RY*(   2) N   7                    0.69   11.09    0.078
  12. CR (   1) C   2                / 97. BD*(   1) C   1 - N   7            0.79   10.65    0.082
  12. CR (   1) C   2                /100. BD*(   1) C   2 - C   3            1.12   10.68    0.098
  12. CR (   1) C   2                /105. BD*(   1) C   3 - H   6            1.13   10.55    0.098
  13. CR (   1) C   3                / 37. RY*(   1) C   2                    0.80   10.85    0.084
  13. CR (   1) C   3                / 38. RY*(   2) C   2                    2.03   11.12    0.134
  13. CR (   1) C   3                / 80. RY*(   1) H   6                    0.57   10.63    0.069
  13. CR (   1) C   3                /100. BD*(   1) C   2 - C   3            1.29   10.69    0.105
  13. CR (   1) C   3                /102. BD*(   1) C   2 - H   5            0.88   10.56    0.086
  13. CR (   1) C   3                /104. BD*(   1) C   3 - S   4            0.76   10.30    0.079
  15. CR (   2) S   4                / 23. RY*(   1) C   1                    0.81    9.44    0.078
  15. CR (   2) S   4                / 24. RY*(   2) C   1                    0.75   10.08    0.078
  15. CR (   2) S   4                / 51. RY*(   1) C   3                    1.33    9.89    0.103
  15. CR (   2) S   4                / 99. BD*(   1) C   1 - H   8            0.63    9.31    0.069
  15. CR (   2) S   4                /105. BD*(   1) C   3 - H   6            0.72    9.30    0.073
  19. CR (   1) N   7                / 23. RY*(   1) C   1                    3.20   14.75    0.194
  19. CR (   1) N   7                / 28. RY*(   6) C   1                    0.63   15.39    0.088
  19. CR (   1) N   7                / 37. RY*(   1) C   2                    2.10   14.90    0.158
  19. CR (   1) N   7                / 99. BD*(   1) C   1 - H   8            0.55   14.62    0.080
  20. LP (   1) S   4                / 24. RY*(   2) C   1                    0.74    1.91    0.034
  20. LP (   1) S   4                / 51. RY*(   1) C   3                    1.23    1.72    0.041
  20. LP (   1) S   4                / 97. BD*(   1) C   1 - N   7            2.11    1.23    0.045
  20. LP (   1) S   4                /100. BD*(   1) C   2 - C   3            1.28    1.26    0.036
  21. LP (   2) S   4                / 27. RY*(   5) C   1                    0.83    1.42    0.034
  21. LP (   2) S   4                / 53. RY*(   3) C   3                    0.67    1.71    0.033
  21. LP (   2) S   4                / 67. RY*(   3) S   4                    1.03    0.84    0.029
  21. LP (   2) S   4                / 98. BD*(   2) C   1 - N   7           25.79    0.25    0.072
  21. LP (   2) S   4                /101. BD*(   2) C   2 - C   3           18.39    0.27    0.064
  22. LP (   1) N   7                / 23. RY*(   1) C   1                    4.60    0.97    0.061
[...]
     3   6     0.03  -0.08   0.00     0.03  -0.05   0.00     0.07   0.02   0.00
     4  16     0.01  -0.01   0.00     0.00  -0.01   0.00     0.00   0.00   0.00
     5   1    -0.20   0.04   0.00    -0.26   0.72   0.00    -0.28   0.47   0.00
     6   1     0.91   0.09   0.00     0.44   0.03   0.00    -0.24  -0.04   0.00
     7   7    -0.05   0.14   0.00     0.01  -0.07   0.00    -0.02  -0.07   0.00
     8   1     0.25  -0.02   0.00    -0.42   0.01   0.00     0.77  -0.17   0.00
                    13                     14                     15
                     A                      A                      A
 Frequencies --  1365.0073              1448.7774              1536.6323
 Red. masses --     1.9915                 6.5662                 4.9264
 Frc consts  --     2.1863                 8.1202                 6.8536
 IR Inten    --     2.7316                29.6489                31.4742
  Atom  AN      X      Y      Z        X      Y      Z        X      Y      Z
     1   6    -0.01   0.06   0.00     0.37   0.14   0.00     0.28   0.08   0.00
     2   6     0.04   0.18   0.00    -0.29   0.19   0.00     0.27  -0.19   0.00
     3   6    -0.15  -0.04   0.00     0.30  -0.12   0.00    -0.23   0.12   0.00
     4  16     0.02   0.00   0.00     0.00   0.00   0.00     0.00  -0.01   0.00
     5   1     0.37  -0.43   0.00    -0.09  -0.28   0.00    -0.17   0.72   0.00
     6   1     0.52   0.10   0.00    -0.39  -0.30   0.00     0.07   0.22   0.00
     7   7    -0.04  -0.15   0.00    -0.28  -0.16   0.00    -0.27  -0.07   0.00
     8   1     0.55  -0.08   0.00    -0.26   0.34   0.00    -0.13   0.22   0.00
                    16                     17                     18
                     A                      A                      A
 Frequencies --  3241.2378              3251.7633              3280.0833
 Red. masses --     1.0906                 1.0939                 1.0985
 Frc consts  --     6.7508                 6.8152                 6.9635
 IR Inten    --     4.5922                 0.0952                 1.1205
  Atom  AN      X      Y      Z        X      Y      Z        X      Y      Z
     1   6     0.00  -0.01   0.00     0.02   0.08   0.00     0.00   0.00   0.00
     2   6    -0.08  -0.04   0.00    -0.01   0.00   0.00    -0.02  -0.01   0.00
     3   6     0.00   0.02   0.00     0.00   0.00   0.00     0.02  -0.08   0.00
     4  16     0.00   0.00   0.00     0.00   0.00   0.00     0.00   0.00   0.00
     5   1     0.86   0.44   0.00     0.07   0.04   0.00     0.21   0.10   0.00
     6   1     0.04  -0.23   0.00     0.01  -0.06   0.00    -0.19   0.95   0.00
     7   7     0.00   0.00   0.00     0.00   0.00   0.00     0.00   0.00   0.00
     8   1     0.02   0.09   0.00    -0.25  -0.96   0.00    -0.01  -0.04   0.00

 -------------------
 - Thermochemistry -
 -------------------
 Temperature   298.150 Kelvin.  Pressure   1.00000 Atm.
 Atom     1 has atomic number  6 and mass  12.00000
 Atom     2 has atomic number  6 and mass  12.00000
 Atom     3 has atomic number  6 and mass  12.00000
 Atom     4 has atomic number 16 and mass  31.97207
 Atom     5 has atomic number  1 and mass   1.00783
 Atom     6 has atomic number  1 and mass   1.00783
 Atom     7 has atomic number  7 and mass  14.00307
 Atom     8 has atomic number  1 and mass   1.00783
 Molecular mass:    84.99862 amu.
 Principal axes and moments of inertia in atomic units:
                           1         2         3
     Eigenvalues --   213.32231 332.56188 545.88408
           X            0.99662   0.08217   0.00001
           Y           -0.08217   0.99662   0.00000
           Z           -0.00001   0.00000   1.00000
 This molecule is an asymmetric top.
 Rotational symmetry number  1.
 Rotational temperatures (Kelvin)      0.40602     0.26044     0.15867
 Rotational constants (GHZ):           8.46016     5.42678     3.30609
 Zero-point vibrational energy     145073.3 (Joules/Mol)
                                   34.67335 (Kcal/Mol)
 Warning -- explicit consideration of   3 degrees of freedom as
           vibrations may cause significant error
 Vibrational temperatures:    674.59   882.55   885.10  1043.40  1069.27
          (Kelvin)           1154.49  1243.36  1277.56  1296.07  1545.24
                             1670.35  1834.03  1963.94  2084.46  2210.87
                             4663.41  4678.56  4719.30
 
 Zero-point correction=                           0.055255 (Hartree/Particle)
 Thermal correction to Energy=                    0.059168
 Thermal correction to Enthalpy=                  0.060113
 Thermal correction to Gibbs Free Energy=         0.028102
 Sum of electronic and zero-point Energies=           -569.001063
 Sum of electronic and thermal Energies=              -568.997150
 Sum of electronic and thermal Enthalpies=            -568.996205
 Sum of electronic and thermal Free Energies=         -569.028216
 
                     E (Thermal)             CV                S
                      KCal/Mol        Cal/Mol-Kelvin    Cal/Mol-Kelvin
 Total                   37.129             13.998             67.371
 Electronic               0.000              0.000              0.000
 Translational            0.889              2.981             39.234
 Rotational               0.889              2.981             25.163
 Vibrational             35.351              8.037              2.974
 Vibration     1          0.826              1.319              0.741
 Vibration     2          0.973              1.003              0.427
 Vibration     3          0.975              1.000              0.424
                       Q            Log10(Q)             Ln(Q)
 Total Bot       0.118520D-12        -12.926210        -29.763698
 Total V=0       0.308675D+13         12.489501         28.758139
 Vib (Bot)       0.546218D-25        -25.262634        -58.169364
 Vib (Bot)    1  0.360091D+00         -0.443588         -1.021398
 Vib (Bot)    2  0.240065D+00         -0.619672         -1.426847
 Vib (Bot)    3  0.238931D+00         -0.621728         -1.431581
 Vib (V=0)       0.142258D+01          0.153077          0.352473
 Vib (V=0)    1  0.111617D+01          0.047730          0.109903
 Vib (V=0)    2  0.105465D+01          0.023106          0.053204
 Vib (V=0)    3  0.105416D+01          0.022905          0.052740
 Electronic      0.100000D+01          0.000000          0.000000
 Translational   0.308016D+08          7.488573         17.243077
 Rotational      0.704451D+05          4.847851         11.162589
 ***** Axes restored to original set *****
 -------------------------------------------------------------------
 Center     Atomic                   Forces (Hartrees/Bohr)
 Number     Number              X              Y              Z
 -------------------------------------------------------------------
      1        6          -0.000112169   -0.000251212   -0.000227852
      2        6           0.000090193    0.000065502   -0.000156720
      3        6           0.000139777    0.000084446    0.000015785
      4       16           0.000050200   -0.000166468    0.000084340
      5        1          -0.000055603    0.000030591   -0.000004100
      6        1           0.000004666    0.000076700    0.000015336
      7        7          -0.000316578    0.000115608    0.000258186
      8        1           0.000199514    0.000044832    0.000015025
 -------------------------------------------------------------------
 Cartesian Forces:  Max     0.000316578 RMS     0.000138643

 GradGradGradGradGradGradGradGradGradGradGradGradGradGradGradGradGradGrad
 Berny optimization.
 Internal  Forces:  Max     0.000246562 RMS     0.000099418
 Search for a local minimum.
 Step number   1 out of a maximum of    2
 All quantities printed in internal units (Hartrees-Bohrs-Radians)
 Second derivative matrix not updated -- analytic derivatives used.
 ITU=  0
     Eigenvalues ---    0.01517   0.02538   0.03259   0.04739   0.06102
     Eigenvalues ---    0.09337   0.10874   0.11636   0.16694   0.20725
     Eigenvalues ---    0.24494   0.30481   0.37105   0.37158   0.37779
     Eigenvalues ---    0.44690   0.47726   0.56802
 Angle between quadratic step and forces=  49.86 degrees.
 Linear search not attempted -- first point.
 Iteration  1 RMS(Cart)=  0.00055807 RMS(Int)=  0.00000068
 Iteration  2 RMS(Cart)=  0.00000045 RMS(Int)=  0.00000049
 Variable       Old X    -DE/DX   Delta X   Delta X   Delta X     New X
                                 (Linear)    (Quad)   (Total)
    R1        3.30343   0.00000   0.00000   0.00005   0.00005   3.30348
    R2        2.45999   0.00025   0.00000   0.00044   0.00044   2.46043
    R3        2.04782   0.00019   0.00000   0.00050   0.00050   2.04833
    R4        2.58492  -0.00006   0.00000  -0.00011  -0.00011   2.58482
    R5        2.04828   0.00006   0.00000   0.00016   0.00016   2.04844
    R6        2.60480  -0.00022   0.00000  -0.00055  -0.00055   2.60424
    R7        3.27593   0.00012   0.00000   0.00023   0.00023   3.27616
    R8        2.04401  -0.00003   0.00000  -0.00006  -0.00006   2.04396
    A1        2.01036   0.00001   0.00000   0.00002   0.00002   2.01038
    A2        2.10716   0.00006   0.00000   0.00068   0.00068   2.10784
    A3        2.16566  -0.00007   0.00000  -0.00069  -0.00069   2.16497
    A4        2.18246   0.00001   0.00000  -0.00019  -0.00019   2.18227
    A5        2.02332  -0.00008   0.00000  -0.00028  -0.00028   2.02304
    A6        2.07740   0.00007   0.00000   0.00048   0.00048   2.07788
    A7        1.91533   0.00017   0.00000   0.00045   0.00045   1.91577
    A8        2.24591  -0.00016   0.00000  -0.00086  -0.00086   2.24505
    A9        2.12195  -0.00001   0.00000   0.00042   0.00042   2.12237
   A10        1.54707  -0.00014   0.00000  -0.00037  -0.00037   1.54670
   A11        1.92870   0.00005   0.00000   0.00019   0.00019   1.92889
    D1       -0.00151   0.00009   0.00000   0.00151   0.00151   0.00000
    D2       -3.14072  -0.00003   0.00000  -0.00087  -0.00088  -3.14159
    D3        0.00227  -0.00012   0.00000  -0.00227  -0.00227   0.00000
    D4        3.14138   0.00000   0.00000   0.00022   0.00021   3.14159
    D5        3.14151   0.00002   0.00000   0.00009   0.00009  -3.14159
    D6       -0.00009   0.00001   0.00000   0.00009   0.00009   0.00000
    D7        0.00094  -0.00003   0.00000  -0.00094  -0.00094   0.00000
    D8       -3.14066  -0.00005   0.00000  -0.00093  -0.00093   3.14159
    D9       -0.00207   0.00010   0.00000   0.00207   0.00207   0.00000
   D10        3.14048   0.00004   0.00000   0.00111   0.00111   3.14159
   D11        0.00027  -0.00003   0.00000  -0.00027  -0.00027   0.00000
   D12       -3.14131  -0.00001   0.00000  -0.00028  -0.00028  -3.14159
         Item               Value     Threshold  Converged?
 Maximum Force            0.000247     0.000450     YES
 RMS     Force            0.000099     0.000300     YES
 Maximum Displacement     0.001600     0.001800     YES
 RMS     Displacement     0.000558     0.001200     YES
 Predicted change in Energy=-7.799963D-07
 Optimization completed.
    -- Stationary point found.
                           ----------------------------
                           !   Optimized Parameters   !
                           ! (Angstroms and Degrees)  !
 --------------------------                            --------------------------
 ! Name  Definition              Value          Derivative Info.                !
 --------------------------------------------------------------------------------
 ! R1    R(1,4)                  1.7481         -DE/DX =    0.0                 !
 ! R2    R(1,7)                  1.3018         -DE/DX =    0.0002              !
 ! R3    R(1,8)                  1.0837         -DE/DX =    0.0002              !
 ! R4    R(2,3)                  1.3679         -DE/DX =   -0.0001              !
 ! R5    R(2,5)                  1.0839         -DE/DX =    0.0001              !
 ! R6    R(2,7)                  1.3784         -DE/DX =   -0.0002              !
 ! R7    R(3,4)                  1.7335         -DE/DX =    0.0001              !
 ! R8    R(3,6)                  1.0816         -DE/DX =    0.0                 !
 ! A1    A(4,1,7)              115.1852         -DE/DX =    0.0                 !
 ! A2    A(4,1,8)              120.7316         -DE/DX =    0.0001              !
 ! A3    A(7,1,8)              124.0831         -DE/DX =   -0.0001              !
 ! A4    A(3,2,5)              125.0459         -DE/DX =    0.0                 !
 ! A5    A(3,2,7)              115.9276         -DE/DX =   -0.0001              !
 ! A6    A(5,2,7)              119.0265         -DE/DX =    0.0001              !
 ! A7    A(2,3,4)              109.7401         -DE/DX =    0.0002              !
 ! A8    A(2,3,6)              128.6812         -DE/DX =   -0.0002              !
 ! A9    A(4,3,6)              121.5787         -DE/DX =    0.0                 !
 ! A10   A(1,4,3)               88.6406         -DE/DX =   -0.0001              !
 ! A11   A(1,7,2)              110.5064         -DE/DX =    0.0                 !
 ! D1    D(7,1,4,3)             -0.0868         -DE/DX =    0.0001              !
 ! D2    D(8,1,4,3)           -179.9497         -DE/DX =    0.0                 !
 ! D3    D(4,1,7,2)              0.1299         -DE/DX =   -0.0001              !
 ! D4    D(8,1,7,2)            179.9877         -DE/DX =    0.0                 !
 ! D5    D(5,2,3,4)           -180.0049         -DE/DX =    0.0                 !
 ! D6    D(5,2,3,6)             -0.0054         -DE/DX =    0.0                 !
 ! D7    D(7,2,3,4)              0.0538         -DE/DX =    0.0                 !
 ! D8    D(7,2,3,6)            180.0534         -DE/DX =    0.0                 !
 ! D9    D(3,2,7,1)             -0.1187         -DE/DX =    0.0001              !
 ! D10   D(5,2,7,1)            179.9363         -DE/DX =    0.0                 !
 ! D11   D(2,3,4,1)              0.0156         -DE/DX =    0.0                 !
 ! D12   D(6,3,4,1)           -179.984          -DE/DX =    0.0                 !
 --------------------------------------------------------------------------------
 GradGradGradGradGradGradGradGradGradGradGradGradGradGradGradGradGradGrad

 1\1\GINC-LOCALHOST\Freq\RB3LYP\6-31+G(d)\C3H3N1S1\PVBHARATAM\25-Feb-20
 21\0\\#N Geom=AllCheck Guess=TCheck SCRF=Check GenChk RB3LYP/6-31+G(d)
  Freq\\ATZ\\0,1\C,0.7699203291,0.2163613637,0.0017369984\C,-1.21482950
 95,1.1716010702,0.0089154538\C,-1.6379325284,-0.129201502,0.0100711395
 \S,-0.2673942078,-1.1906981873,0.0046578742\H,-1.8661702362,2.03797030
 32,0.0115259877\H,-2.6499898193,-0.5108884177,0.0137060436\N,0.1504407
 144,1.3612874834,0.0027536334\H,1.8482760376,0.1093557864,-0.002951910
 5\\Version=EM64L-G09RevB.01\State=1-A\HF=-569.0563181\RMSD=6.106e-10\R
 MSF=1.386e-04\ZeroPoint=0.0552555\Thermal=0.0591685\Dipole=-0.3421316,
 -0.5548571,0.0014061\DipoleDeriv=0.1198015,0.1904603,-0.0008868,0.2611
 304,0.8207869,-0.0007498,-0.0019297,-0.0005291,-0.1215837,0.1799116,-0
 .069211,-0.0011334,-0.0283011,0.0950881,0.0000583,-0.0009044,0.0000463
 ,-0.0557914,0.0005287,-0.212841,-0.0011317,-0.0914862,0.1328181,0.0005
 774,-0.0010303,0.0008009,-0.2741304,0.0009484,-0.0659692,0.0006477,-0.
 125402,-0.3321965,0.0003932,0.0006409,-0.0001828,0.1579504,0.0334523,0
 .0367105,0.0005879,0.0917394,-0.0079887,-0.0003629,0.0005301,0.0000906
 ,0.167506,-0.0007533,-0.0181364,0.0007551,0.0070186,0.0809283,-0.00007
 29,0.0007329,0.0000641,0.1932969,-0.3232019,0.130646,0.0005424,-0.0823
 151,-0.8357527,-0.0000081,0.0007223,-0.0002215,-0.228066,-0.0106873,0.
 0083408,0.0006189,-0.0323839,0.0463166,0.0001648,0.0012381,-0.0000686,
 0.1608182\Polar=62.1116156,-0.188498,67.9570212,-0.0942326,0.0030667,3
 6.2693636\PG=C01 [X(C3H3N1S1)]\NImag=0\\0.76365376,-0.16858016,0.52163
 177,-0.00251834,0.00036406,0.10163381,-0.07843919,0.07322861,0.0003146
 5,0.61959395,0.02246403,-0.00780729,-0.00011667,-0.09058144,0.79630330
 ,0.00027847,-0.00028884,0.00691184,-0.00194121,0.00045260,0.13494567,-
 0.05733899,-0.02553703,0.00025361,-0.12200040,-0.09724696,0.00022124,0
 .66605949,0.00935764,-0.01672257,-0.00000354,-0.06258696,-0.37887304,0
 .00011097,0.17676797,0.60059238,0.00023994,0.00011100,0.01063671,0.000
 20436,0.00024912,-0.05653760,-0.00211582,-0.00049816,0.08560903,-0.086
 09228,-0.05679379,0.00016834,-0.00988324,0.04611961,0.00007108,-0.1260
 1621,0.07410596,0.00035711,0.24365869,-0.03975979,-0.07921860,0.000106
 38,-0.01435603,-0.06010793,0.00006444,0.05085490,-0.08705938,-0.000219
 91,-0.02682592,0.30954753,0.00015352,0.00015084,-0.04005249,0.00006070
 ,-0.00018975,0.00767926,0.00035571,-0.00030080,-0.03347848,-0.00075936
 ,0.00016085,0.04182123,-0.00648957,-0.00081377,0.00004519,-0.15263941,
 0.13636102,0.00049639,0.00949202,-0.00918204,-0.00002436,0.00124506,-0
 .00311961,0.00002284,0.16962425,-0.00261844,0.00071874,0.00000813,0.14
 234868,-0.25121559,-0.00056902,0.01651892,-0.01509328,-0.00006113,-0.0
 0015848,-0.00293454,-0.00000177,-0.15017325,0.25782945,0.00004347,-0.0
 0000133,0.00320576,0.00048137,-0.00051481,-0.03300832,-0.00001351,0.00
 001542,0.00408715,0.00001635,0.00001947,0.00684150,-0.00059535,0.00059
 927,0.02358705,-0.00159613,0.00137010,0.00001191,0.00010141,0.00243908
 ,-0.00000225,-0.32492823,-0.10535671,0.00109717,-0.01029103,-0.0059794
 0,0.00002523,0.00006858,-0.00047978,-0.00001244,0.33607391,0.00523428,
 -0.00668638,-0.00002058,-0.02481440,0.00313445,0.00010155,-0.10387165,
 -0.08988379,0.00035479,0.01795262,0.00708227,-0.00006292,0.00070957,0.
 00040869,-0.00000130,0.10898567,0.08836713,0.00000817,-0.00001109,0.00
 089795,-0.00000600,0.00000088,-0.00066181,0.00109434,0.00036009,-0.022
 24159,0.00003596,0.00003020,-0.00320456,-0.00001325,0.00000164,-0.0032
 6916,-0.00115010,-0.00038274,0.01892781,-0.18058112,0.15190497,0.00032
 015,-0.25789295,-0.02240900,0.00085051,-0.04577929,-0.08142879,0.00024
 037,-0.00507271,0.03851393,0.00010975,-0.02095560,-0.00526944,0.000076
 10,0.00050291,-0.00441922,0.00002352,0.51918561,0.15562508,-0.36093956
 ,-0.00026611,-0.02622908,-0.09801981,0.00012573,-0.01445247,-0.0072476
 3,0.00005589,-0.03404512,-0.08947363,0.00015739,0.02488703,0.00983409,
 -0.00011162,-0.00035332,-0.00401313,0.00000084,-0.10980734,0.55248271,
 0.00030871,-0.00020761,-0.05838548,0.00085138,0.00010560,-0.06736037,0
 .00019385,0.00032139,0.01124600,0.00011030,-0.00015836,0.02176806,0.00
 006585,0.00002301,-0.00237012,0.00002433,0.00001140,0.00730098,-0.0015
 7217,0.00005038,0.09411542,-0.35311647,0.02522108,0.00140450,0.0011598
 4,0.00285366,0.00002577,0.00051162,-0.00167707,0.00000122,-0.00754828,
 0.00067192,0.00003160,-0.00034531,-0.00016820,0.00000400,0.00006858,0.
 00022312,0.00000736,-0.00940685,0.00437523,0.00001776,0.36867688,0.018
 27735,-0.05097612,-0.00007166,0.00299062,-0.00341409,0.00000257,-0.003
 03367,-0.00571269,0.00000840,-0.02035488,0.00216429,0.00008616,0.00133
 106,0.00045243,-0.00000510,-0.00062565,0.00159077,0.00000018,0.0329149
 0,-0.00262304,-0.00014579,-0.03149973,0.05851846,0.00148606,-0.0001170
 2,-0.02484810,0.00003475,0.00001303,0.00803134,0.00001058,-0.00000536,
 0.00067878,0.00000022,-0.00000306,-0.00137450,0.00000268,-0.00000013,0
 .00092613,0.00000615,-0.00000019,0.00225040,-0.00004822,-0.00001250,-0
 .00631450,-0.00149221,0.00012524,0.02065045\\0.00011217,0.00025121,0.0
 0022785,-0.00009019,-0.00006550,0.00015672,-0.00013978,-0.00008445,-0.
 00001578,-0.00005020,0.00016647,-0.00008434,0.00005560,-0.00003059,0.0
 0000410,-0.00000467,-0.00007670,-0.00001534,0.00031658,-0.00011561,-0.
 00025819,-0.00019951,-0.00004483,-0.00001502\\\@


 LENDING MONEY TO FRIENDS CAUSES THEM TO LOSE THEIR MEMORIES.

    --  PETER'S THEORY OF RECIPROCAL INHIBITION OF FISCAL RECALL
 Job cpu time:  0 days  0 hours  2 minutes 46.7 seconds.
 File lengths (MBytes):  RWF=     16 Int=      0 D2E=      0 Chk=      2 Scr=      1
 Normal termination of Gaussian 09 at Thu Feb 25 21:19:49 2021.
